
     Program PWSCF v.5.2.1 (svn rev. 11758) starts on 23Nov2024 at  3:15:49 

     This program is part of the open-source Quantum ESPRESSO suite
     for quantum simulation of materials; please cite
         "P. Giannozzi et al., J. Phys.:Condens. Matter 21 395502 (2009);
          URL http://www.quantum-espresso.org", 
     in publications or presentations arising from this work. More details at
     http://www.quantum-espresso.org/quote

     Parallel version (MPI), running on     1 processors
     Waiting for input...
     Reading input from standard input
Warning: card &INPUT ignored
Warning: card   PREFIX = 'TAAS' ignored
Warning: card   OUTDIR = './OUT/' ignored
Warning: card   NUM_BANDS = 8 ignored
Warning: card   NUM_WANN = 8 ignored
Warning: card   CALCULATE_BANDS = .TRUE. ignored
Warning: card   BANDS_PLOT = .TRUE. ignored
Warning: card   KPOINT_FILE = 'KPOINTS.DAT' ignored
Warning: card / ignored

     Current dimensions of program PWSCF are:
     Max number of different atomic species (ntypx) = 10
     Max number of k-points (npk) =  40000
     Max angular momentum in pseudopotentials (lmaxx) =  3

     Subspace diagonalization in iterative solution of the eigenvalue problem:
     a serial algorithm will be used

     Found symmetry operation: I + (  0.5000 -0.5000 -0.5000)
     This is a supercell, fractional translations are disabled

     G-vector sticks info
     --------------------
     sticks:   dense  smooth     PW     G-vecs:    dense   smooth      PW
     Sum        1201     593    185               106117    37477    6283



     bravais-lattice index     =            0
     lattice parameter (alat)  =       6.4842  a.u.
     unit-cell volume          =     919.8275 (a.u.)^3
     number of atoms/cell      =            8
     number of atomic types    =            2
     number of electrons       =        72.00
     number of Kohn-Sham states=           43
     kinetic-energy cutoff     =      45.0000  Ry
     charge density cutoff     =     360.0000  Ry
     convergence threshold     =      1.6E-09
     mixing beta               =       0.4000
     number of iterations used =            8  plain     mixing
     Exchange-correlation      = SLA  PW   PSX  PSC ( 1  4 10  8 0 0)

     celldm(1)=   6.484232  celldm(2)=   0.000000  celldm(3)=   0.000000
     celldm(4)=   0.000000  celldm(5)=   0.000000  celldm(6)=   0.000000

     crystal axes: (cart. coord. in units of alat)
               a(1) = (   1.000000   0.000000   0.000000 )  
               a(2) = (   0.000000   1.000000   0.000000 )  
               a(3) = (   0.000000   0.000000   3.373889 )  

     reciprocal axes: (cart. coord. in units 2 pi/alat)
               b(1) = (  1.000000  0.000000  0.000000 )  
               b(2) = (  0.000000  1.000000  0.000000 )  
               b(3) = (  0.000000  0.000000  0.296394 )  


     PseudoPot. # 1 for As read from file:
     ./pseudo/As.pbesol-n-rrkjus_psl.0.2.UPF
     MD5 check sum: 1aa86e6aa4f77befd3aa87cac6788838
     Pseudo is Ultrasoft + core correction, Zval =  5.0
     Generated using "atomic" code by A. Dal Corso  v.6.0 svn rev. 13079
     Using radial grid of 1209 points,  4 beta functions with: 
                l(1) =   0
                l(2) =   0
                l(3) =   1
                l(4) =   1
     Q(r) pseudized with 0 coefficients 


     PseudoPot. # 2 for Ta read from file:
     ./pseudo/ta_pbesol_v1.uspp.F.UPF
     MD5 check sum: 5dd23d6859724cbb2c0d9b6294d5f84c
     Pseudo is Ultrasoft + core correction, Zval = 13.0
     Generated by new atomic code, or converted to UPF format
     Using radial grid of  921 points,  7 beta functions with: 
                l(1) =   0
                l(2) =   0
                l(3) =   1
                l(4) =   1
                l(5) =   2
                l(6) =   2
                l(7) =   3
     Q(r) pseudized with  6 coefficients,  rinner =    1.300   1.300   1.300
                                                       1.300   1.300   1.300
                                                       1.300

     atomic species   valence    mass     pseudopotential
        As             5.00    74.92160     As( 1.00)
        Ta            13.00   180.94788     Ta( 1.00)

      4 Sym. Ops. (no inversion) found


                                    s                        frac. trans.

      isym =  1     identity                                     

 cryst.   s( 1) = (     1          0          0      )
                  (     0          1          0      )
                  (     0          0          1      )

 cart.    s( 1) = (  1.0000000  0.0000000  0.0000000 )
                  (  0.0000000  1.0000000  0.0000000 )
                  (  0.0000000  0.0000000  1.0000000 )


      isym =  2     180 deg rotation - cart. axis [0,0,1]        

 cryst.   s( 2) = (    -1          0          0      )
                  (     0         -1          0      )
                  (     0          0          1      )

 cart.    s( 2) = ( -1.0000000  0.0000000  0.0000000 )
                  (  0.0000000 -1.0000000  0.0000000 )
                  (  0.0000000  0.0000000  1.0000000 )


      isym =  3     inv. 180 deg rotation - cart. axis [0,1,0]   

 cryst.   s( 3) = (     1          0          0      )
                  (     0         -1          0      )
                  (     0          0          1      )

 cart.    s( 3) = (  1.0000000  0.0000000  0.0000000 )
                  (  0.0000000 -1.0000000  0.0000000 )
                  (  0.0000000  0.0000000  1.0000000 )


      isym =  4     inv. 180 deg rotation - cart. axis [1,0,0]   

 cryst.   s( 4) = (    -1          0          0      )
                  (     0          1          0      )
                  (     0          0          1      )

 cart.    s( 4) = ( -1.0000000  0.0000000  0.0000000 )
                  (  0.0000000  1.0000000  0.0000000 )
                  (  0.0000000  0.0000000  1.0000000 )


     point group C_2v (mm2) 
     there are  4 classes
     the character table:

       E     C2    s_v   s_v' 
A_1    1.00  1.00  1.00  1.00
A_2    1.00  1.00 -1.00 -1.00
B_1    1.00 -1.00  1.00 -1.00
B_2    1.00 -1.00 -1.00  1.00

     the symmetry operations in each class and the name of the first element:

     E        1
          identity                                               
     C2       2
          180 deg rotation - cart. axis [0,0,1]                  
     s_v      3
          inv. 180 deg rotation - cart. axis [0,1,0]             
     s_v'     4
          inv. 180 deg rotation - cart. axis [1,0,0]             

   Cartesian axes

     site n.     atom                  positions (alat units)
         1           Ta  tau(   1) = (   0.5000000   0.0000000   0.8433508  )
         2           Ta  tau(   2) = (   0.5000000   0.5000000   3.3737718  )
         3           Ta  tau(   3) = (   0.0000000   0.5000000   2.5302988  )
         4           Ta  tau(   4) = (   0.0000000   0.0000000   1.6868289  )
         5           As  tau(   5) = (   0.0000000   0.5000000   0.5659170  )
         6           As  tau(   6) = (   0.0000000   0.0000000   3.0963375  )
         7           As  tau(   7) = (   0.5000000   0.0000000   2.2528632  )
         8           As  tau(   8) = (   0.5000000   0.5000000   1.4093936  )

   Crystallographic axes

     site n.     atom                  positions (cryst. coord.)
         1           Ta  tau(   1) = (  0.5000000  0.0000000  0.2499640  )
         2           Ta  tau(   2) = (  0.5000000  0.5000000  0.9999652  )
         3           Ta  tau(   3) = (  0.0000000  0.5000000  0.7499650  )
         4           Ta  tau(   4) = (  0.0000000  0.0000000  0.4999657  )
         5           As  tau(   5) = (  0.0000000  0.5000000  0.1677343  )
         6           As  tau(   6) = (  0.0000000  0.0000000  0.9177354  )
         7           As  tau(   7) = (  0.5000000  0.0000000  0.6677348  )
         8           As  tau(   8) = (  0.5000000  0.5000000  0.4177356  )

     number of k points=   162  Marzari-Vanderbilt smearing, width (Ry)=  0.0147
                       cart. coord. in units 2pi/alat
        k(    1) = (   0.0000000   0.0000000   0.0000000), wk =   0.0026042
        k(    2) = (   0.0000000   0.0000000   0.0987980), wk =   0.0052083
        k(    3) = (   0.0000000   0.0625000   0.0000000), wk =   0.0052083
        k(    4) = (   0.0000000   0.0625000   0.0987980), wk =   0.0104167
        k(    5) = (   0.0000000   0.1250000   0.0000000), wk =   0.0052083
        k(    6) = (   0.0000000   0.1250000   0.0987980), wk =   0.0104167
        k(    7) = (   0.0000000   0.1875000   0.0000000), wk =   0.0052083
        k(    8) = (   0.0000000   0.1875000   0.0987980), wk =   0.0104167
        k(    9) = (   0.0000000   0.2500000   0.0000000), wk =   0.0052083
        k(   10) = (   0.0000000   0.2500000   0.0987980), wk =   0.0104167
        k(   11) = (   0.0000000   0.3125000   0.0000000), wk =   0.0052083
        k(   12) = (   0.0000000   0.3125000   0.0987980), wk =   0.0104167
        k(   13) = (   0.0000000   0.3750000   0.0000000), wk =   0.0052083
        k(   14) = (   0.0000000   0.3750000   0.0987980), wk =   0.0104167
        k(   15) = (   0.0000000   0.4375000   0.0000000), wk =   0.0052083
        k(   16) = (   0.0000000   0.4375000   0.0987980), wk =   0.0104167
        k(   17) = (   0.0000000  -0.5000000   0.0000000), wk =   0.0026042
        k(   18) = (   0.0000000  -0.5000000   0.0987980), wk =   0.0052083
        k(   19) = (   0.0625000   0.0625000   0.0000000), wk =   0.0104167
        k(   20) = (   0.0625000   0.0625000   0.0987980), wk =   0.0208333
        k(   21) = (   0.0625000   0.1250000   0.0000000), wk =   0.0104167
        k(   22) = (   0.0625000   0.1250000   0.0987980), wk =   0.0208333
        k(   23) = (   0.0625000   0.1875000   0.0000000), wk =   0.0104167
        k(   24) = (   0.0625000   0.1875000   0.0987980), wk =   0.0208333
        k(   25) = (   0.0625000   0.2500000   0.0000000), wk =   0.0104167
        k(   26) = (   0.0625000   0.2500000   0.0987980), wk =   0.0208333
        k(   27) = (   0.0625000   0.3125000   0.0000000), wk =   0.0104167
        k(   28) = (   0.0625000   0.3125000   0.0987980), wk =   0.0208333
        k(   29) = (   0.0625000   0.3750000   0.0000000), wk =   0.0104167
        k(   30) = (   0.0625000   0.3750000   0.0987980), wk =   0.0208333
        k(   31) = (   0.0625000   0.4375000   0.0000000), wk =   0.0104167
        k(   32) = (   0.0625000   0.4375000   0.0987980), wk =   0.0208333
        k(   33) = (   0.0625000  -0.5000000   0.0000000), wk =   0.0052083
        k(   34) = (   0.0625000  -0.5000000   0.0987980), wk =   0.0104167
        k(   35) = (   0.1250000   0.1250000   0.0000000), wk =   0.0104167
        k(   36) = (   0.1250000   0.1250000   0.0987980), wk =   0.0208333
        k(   37) = (   0.1250000   0.1875000   0.0000000), wk =   0.0104167
        k(   38) = (   0.1250000   0.1875000   0.0987980), wk =   0.0208333
        k(   39) = (   0.1250000   0.2500000   0.0000000), wk =   0.0104167
        k(   40) = (   0.1250000   0.2500000   0.0987980), wk =   0.0208333
        k(   41) = (   0.1250000   0.3125000   0.0000000), wk =   0.0104167
        k(   42) = (   0.1250000   0.3125000   0.0987980), wk =   0.0208333
        k(   43) = (   0.1250000   0.3750000   0.0000000), wk =   0.0104167
        k(   44) = (   0.1250000   0.3750000   0.0987980), wk =   0.0208333
        k(   45) = (   0.1250000   0.4375000   0.0000000), wk =   0.0104167
        k(   46) = (   0.1250000   0.4375000   0.0987980), wk =   0.0208333
        k(   47) = (   0.1250000  -0.5000000   0.0000000), wk =   0.0052083
        k(   48) = (   0.1250000  -0.5000000   0.0987980), wk =   0.0104167
        k(   49) = (   0.1875000   0.1875000   0.0000000), wk =   0.0104167
        k(   50) = (   0.1875000   0.1875000   0.0987980), wk =   0.0208333
        k(   51) = (   0.1875000   0.2500000   0.0000000), wk =   0.0104167
        k(   52) = (   0.1875000   0.2500000   0.0987980), wk =   0.0208333
        k(   53) = (   0.1875000   0.3125000   0.0000000), wk =   0.0104167
        k(   54) = (   0.1875000   0.3125000   0.0987980), wk =   0.0208333
        k(   55) = (   0.1875000   0.3750000   0.0000000), wk =   0.0104167
        k(   56) = (   0.1875000   0.3750000   0.0987980), wk =   0.0208333
        k(   57) = (   0.1875000   0.4375000   0.0000000), wk =   0.0104167
        k(   58) = (   0.1875000   0.4375000   0.0987980), wk =   0.0208333
        k(   59) = (   0.1875000  -0.5000000   0.0000000), wk =   0.0052083
        k(   60) = (   0.1875000  -0.5000000   0.0987980), wk =   0.0104167
        k(   61) = (   0.2500000   0.2500000   0.0000000), wk =   0.0104167
        k(   62) = (   0.2500000   0.2500000   0.0987980), wk =   0.0208333
        k(   63) = (   0.2500000   0.3125000   0.0000000), wk =   0.0104167
        k(   64) = (   0.2500000   0.3125000   0.0987980), wk =   0.0208333
        k(   65) = (   0.2500000   0.3750000   0.0000000), wk =   0.0104167
        k(   66) = (   0.2500000   0.3750000   0.0987980), wk =   0.0208333
        k(   67) = (   0.2500000   0.4375000   0.0000000), wk =   0.0104167
        k(   68) = (   0.2500000   0.4375000   0.0987980), wk =   0.0208333
        k(   69) = (   0.2500000  -0.5000000   0.0000000), wk =   0.0052083
        k(   70) = (   0.2500000  -0.5000000   0.0987980), wk =   0.0104167
        k(   71) = (   0.3125000   0.3125000   0.0000000), wk =   0.0104167
        k(   72) = (   0.3125000   0.3125000   0.0987980), wk =   0.0208333
        k(   73) = (   0.3125000   0.3750000   0.0000000), wk =   0.0104167
        k(   74) = (   0.3125000   0.3750000   0.0987980), wk =   0.0208333
        k(   75) = (   0.3125000   0.4375000   0.0000000), wk =   0.0104167
        k(   76) = (   0.3125000   0.4375000   0.0987980), wk =   0.0208333
        k(   77) = (   0.3125000  -0.5000000   0.0000000), wk =   0.0052083
        k(   78) = (   0.3125000  -0.5000000   0.0987980), wk =   0.0104167
        k(   79) = (   0.3750000   0.3750000   0.0000000), wk =   0.0104167
        k(   80) = (   0.3750000   0.3750000   0.0987980), wk =   0.0208333
        k(   81) = (   0.3750000   0.4375000   0.0000000), wk =   0.0104167
        k(   82) = (   0.3750000   0.4375000   0.0987980), wk =   0.0208333
        k(   83) = (   0.3750000  -0.5000000   0.0000000), wk =   0.0052083
        k(   84) = (   0.3750000  -0.5000000   0.0987980), wk =   0.0104167
        k(   85) = (   0.4375000   0.4375000   0.0000000), wk =   0.0104167
        k(   86) = (   0.4375000   0.4375000   0.0987980), wk =   0.0208333
        k(   87) = (   0.4375000  -0.5000000   0.0000000), wk =   0.0052083
        k(   88) = (   0.4375000  -0.5000000   0.0987980), wk =   0.0104167
        k(   89) = (  -0.5000000  -0.5000000   0.0000000), wk =   0.0026042
        k(   90) = (  -0.5000000  -0.5000000   0.0987980), wk =   0.0052083
        k(   91) = (   0.0625000   0.0000000   0.0000000), wk =   0.0052083
        k(   92) = (   0.0625000   0.0000000  -0.0987980), wk =   0.0104167
        k(   93) = (   0.1250000   0.0000000   0.0000000), wk =   0.0052083
        k(   94) = (   0.1250000   0.0000000  -0.0987980), wk =   0.0104167
        k(   95) = (   0.1875000   0.0000000   0.0000000), wk =   0.0052083
        k(   96) = (   0.1875000   0.0000000  -0.0987980), wk =   0.0104167
        k(   97) = (   0.2500000   0.0000000   0.0000000), wk =   0.0052083
        k(   98) = (   0.2500000   0.0000000  -0.0987980), wk =   0.0104167
        k(   99) = (   0.3125000   0.0000000   0.0000000), wk =   0.0052083
        k(  100) = (   0.3125000   0.0000000  -0.0987980), wk =   0.0104167
        k(  101) = (   0.3750000   0.0000000   0.0000000), wk =   0.0052083
        k(  102) = (   0.3750000   0.0000000  -0.0987980), wk =   0.0104167
        k(  103) = (   0.4375000   0.0000000   0.0000000), wk =   0.0052083
        k(  104) = (   0.4375000   0.0000000  -0.0987980), wk =   0.0104167
        k(  105) = (  -0.5000000   0.0000000   0.0000000), wk =   0.0026042
        k(  106) = (  -0.5000000   0.0000000  -0.0987980), wk =   0.0052083
        k(  107) = (   0.1250000   0.0625000   0.0000000), wk =   0.0104167
        k(  108) = (   0.1250000   0.0625000  -0.0987980), wk =   0.0208333
        k(  109) = (   0.1875000   0.0625000   0.0000000), wk =   0.0104167
        k(  110) = (   0.1875000   0.0625000  -0.0987980), wk =   0.0208333
        k(  111) = (   0.2500000   0.0625000   0.0000000), wk =   0.0104167
        k(  112) = (   0.2500000   0.0625000  -0.0987980), wk =   0.0208333
        k(  113) = (   0.3125000   0.0625000   0.0000000), wk =   0.0104167
        k(  114) = (   0.3125000   0.0625000  -0.0987980), wk =   0.0208333
        k(  115) = (   0.3750000   0.0625000   0.0000000), wk =   0.0104167
        k(  116) = (   0.3750000   0.0625000  -0.0987980), wk =   0.0208333
        k(  117) = (   0.4375000   0.0625000   0.0000000), wk =   0.0104167
        k(  118) = (   0.4375000   0.0625000  -0.0987980), wk =   0.0208333
        k(  119) = (  -0.5000000   0.0625000   0.0000000), wk =   0.0052083
        k(  120) = (  -0.5000000   0.0625000  -0.0987980), wk =   0.0104167
        k(  121) = (   0.1875000   0.1250000   0.0000000), wk =   0.0104167
        k(  122) = (   0.1875000   0.1250000  -0.0987980), wk =   0.0208333
        k(  123) = (   0.2500000   0.1250000   0.0000000), wk =   0.0104167
        k(  124) = (   0.2500000   0.1250000  -0.0987980), wk =   0.0208333
        k(  125) = (   0.3125000   0.1250000   0.0000000), wk =   0.0104167
        k(  126) = (   0.3125000   0.1250000  -0.0987980), wk =   0.0208333
        k(  127) = (   0.3750000   0.1250000   0.0000000), wk =   0.0104167
        k(  128) = (   0.3750000   0.1250000  -0.0987980), wk =   0.0208333
        k(  129) = (   0.4375000   0.1250000   0.0000000), wk =   0.0104167
        k(  130) = (   0.4375000   0.1250000  -0.0987980), wk =   0.0208333
        k(  131) = (  -0.5000000   0.1250000   0.0000000), wk =   0.0052083
        k(  132) = (  -0.5000000   0.1250000  -0.0987980), wk =   0.0104167
        k(  133) = (   0.2500000   0.1875000   0.0000000), wk =   0.0104167
        k(  134) = (   0.2500000   0.1875000  -0.0987980), wk =   0.0208333
        k(  135) = (   0.3125000   0.1875000   0.0000000), wk =   0.0104167
        k(  136) = (   0.3125000   0.1875000  -0.0987980), wk =   0.0208333
        k(  137) = (   0.3750000   0.1875000   0.0000000), wk =   0.0104167
        k(  138) = (   0.3750000   0.1875000  -0.0987980), wk =   0.0208333
        k(  139) = (   0.4375000   0.1875000   0.0000000), wk =   0.0104167
        k(  140) = (   0.4375000   0.1875000  -0.0987980), wk =   0.0208333
        k(  141) = (  -0.5000000   0.1875000   0.0000000), wk =   0.0052083
        k(  142) = (  -0.5000000   0.1875000  -0.0987980), wk =   0.0104167
        k(  143) = (   0.3125000   0.2500000   0.0000000), wk =   0.0104167
        k(  144) = (   0.3125000   0.2500000  -0.0987980), wk =   0.0208333
        k(  145) = (   0.3750000   0.2500000   0.0000000), wk =   0.0104167
        k(  146) = (   0.3750000   0.2500000  -0.0987980), wk =   0.0208333
        k(  147) = (   0.4375000   0.2500000   0.0000000), wk =   0.0104167
        k(  148) = (   0.4375000   0.2500000  -0.0987980), wk =   0.0208333
        k(  149) = (  -0.5000000   0.2500000   0.0000000), wk =   0.0052083
        k(  150) = (  -0.5000000   0.2500000  -0.0987980), wk =   0.0104167
        k(  151) = (   0.3750000   0.3125000   0.0000000), wk =   0.0104167
        k(  152) = (   0.3750000   0.3125000  -0.0987980), wk =   0.0208333
        k(  153) = (   0.4375000   0.3125000   0.0000000), wk =   0.0104167
        k(  154) = (   0.4375000   0.3125000  -0.0987980), wk =   0.0208333
        k(  155) = (  -0.5000000   0.3125000   0.0000000), wk =   0.0052083
        k(  156) = (  -0.5000000   0.3125000  -0.0987980), wk =   0.0104167
        k(  157) = (   0.4375000   0.3750000   0.0000000), wk =   0.0104167
        k(  158) = (   0.4375000   0.3750000  -0.0987980), wk =   0.0208333
        k(  159) = (  -0.5000000   0.3750000   0.0000000), wk =   0.0052083
        k(  160) = (  -0.5000000   0.3750000  -0.0987980), wk =   0.0104167
        k(  161) = (  -0.5000000   0.4375000   0.0000000), wk =   0.0052083
        k(  162) = (  -0.5000000   0.4375000  -0.0987980), wk =   0.0104167

                       cryst. coord.
        k(    1) = (   0.0000000   0.0000000   0.0000000), wk =   0.0026042
        k(    2) = (   0.0000000   0.0000000   0.3333333), wk =   0.0052083
        k(    3) = (   0.0000000   0.0625000   0.0000000), wk =   0.0052083
        k(    4) = (   0.0000000   0.0625000   0.3333333), wk =   0.0104167
        k(    5) = (   0.0000000   0.1250000   0.0000000), wk =   0.0052083
        k(    6) = (   0.0000000   0.1250000   0.3333333), wk =   0.0104167
        k(    7) = (   0.0000000   0.1875000   0.0000000), wk =   0.0052083
        k(    8) = (   0.0000000   0.1875000   0.3333333), wk =   0.0104167
        k(    9) = (   0.0000000   0.2500000   0.0000000), wk =   0.0052083
        k(   10) = (   0.0000000   0.2500000   0.3333333), wk =   0.0104167
        k(   11) = (   0.0000000   0.3125000   0.0000000), wk =   0.0052083
        k(   12) = (   0.0000000   0.3125000   0.3333333), wk =   0.0104167
        k(   13) = (   0.0000000   0.3750000   0.0000000), wk =   0.0052083
        k(   14) = (   0.0000000   0.3750000   0.3333333), wk =   0.0104167
        k(   15) = (   0.0000000   0.4375000   0.0000000), wk =   0.0052083
        k(   16) = (   0.0000000   0.4375000   0.3333333), wk =   0.0104167
        k(   17) = (   0.0000000  -0.5000000   0.0000000), wk =   0.0026042
        k(   18) = (   0.0000000  -0.5000000   0.3333333), wk =   0.0052083
        k(   19) = (   0.0625000   0.0625000   0.0000000), wk =   0.0104167
        k(   20) = (   0.0625000   0.0625000   0.3333333), wk =   0.0208333
        k(   21) = (   0.0625000   0.1250000   0.0000000), wk =   0.0104167
        k(   22) = (   0.0625000   0.1250000   0.3333333), wk =   0.0208333
        k(   23) = (   0.0625000   0.1875000   0.0000000), wk =   0.0104167
        k(   24) = (   0.0625000   0.1875000   0.3333333), wk =   0.0208333
        k(   25) = (   0.0625000   0.2500000   0.0000000), wk =   0.0104167
        k(   26) = (   0.0625000   0.2500000   0.3333333), wk =   0.0208333
        k(   27) = (   0.0625000   0.3125000   0.0000000), wk =   0.0104167
        k(   28) = (   0.0625000   0.3125000   0.3333333), wk =   0.0208333
        k(   29) = (   0.0625000   0.3750000   0.0000000), wk =   0.0104167
        k(   30) = (   0.0625000   0.3750000   0.3333333), wk =   0.0208333
        k(   31) = (   0.0625000   0.4375000   0.0000000), wk =   0.0104167
        k(   32) = (   0.0625000   0.4375000   0.3333333), wk =   0.0208333
        k(   33) = (   0.0625000  -0.5000000   0.0000000), wk =   0.0052083
        k(   34) = (   0.0625000  -0.5000000   0.3333333), wk =   0.0104167
        k(   35) = (   0.1250000   0.1250000   0.0000000), wk =   0.0104167
        k(   36) = (   0.1250000   0.1250000   0.3333333), wk =   0.0208333
        k(   37) = (   0.1250000   0.1875000   0.0000000), wk =   0.0104167
        k(   38) = (   0.1250000   0.1875000   0.3333333), wk =   0.0208333
        k(   39) = (   0.1250000   0.2500000   0.0000000), wk =   0.0104167
        k(   40) = (   0.1250000   0.2500000   0.3333333), wk =   0.0208333
        k(   41) = (   0.1250000   0.3125000   0.0000000), wk =   0.0104167
        k(   42) = (   0.1250000   0.3125000   0.3333333), wk =   0.0208333
        k(   43) = (   0.1250000   0.3750000   0.0000000), wk =   0.0104167
        k(   44) = (   0.1250000   0.3750000   0.3333333), wk =   0.0208333
        k(   45) = (   0.1250000   0.4375000   0.0000000), wk =   0.0104167
        k(   46) = (   0.1250000   0.4375000   0.3333333), wk =   0.0208333
        k(   47) = (   0.1250000  -0.5000000   0.0000000), wk =   0.0052083
        k(   48) = (   0.1250000  -0.5000000   0.3333333), wk =   0.0104167
        k(   49) = (   0.1875000   0.1875000   0.0000000), wk =   0.0104167
        k(   50) = (   0.1875000   0.1875000   0.3333333), wk =   0.0208333
        k(   51) = (   0.1875000   0.2500000   0.0000000), wk =   0.0104167
        k(   52) = (   0.1875000   0.2500000   0.3333333), wk =   0.0208333
        k(   53) = (   0.1875000   0.3125000   0.0000000), wk =   0.0104167
        k(   54) = (   0.1875000   0.3125000   0.3333333), wk =   0.0208333
        k(   55) = (   0.1875000   0.3750000   0.0000000), wk =   0.0104167
        k(   56) = (   0.1875000   0.3750000   0.3333333), wk =   0.0208333
        k(   57) = (   0.1875000   0.4375000   0.0000000), wk =   0.0104167
        k(   58) = (   0.1875000   0.4375000   0.3333333), wk =   0.0208333
        k(   59) = (   0.1875000  -0.5000000   0.0000000), wk =   0.0052083
        k(   60) = (   0.1875000  -0.5000000   0.3333333), wk =   0.0104167
        k(   61) = (   0.2500000   0.2500000   0.0000000), wk =   0.0104167
        k(   62) = (   0.2500000   0.2500000   0.3333333), wk =   0.0208333
        k(   63) = (   0.2500000   0.3125000   0.0000000), wk =   0.0104167
        k(   64) = (   0.2500000   0.3125000   0.3333333), wk =   0.0208333
        k(   65) = (   0.2500000   0.3750000   0.0000000), wk =   0.0104167
        k(   66) = (   0.2500000   0.3750000   0.3333333), wk =   0.0208333
        k(   67) = (   0.2500000   0.4375000   0.0000000), wk =   0.0104167
        k(   68) = (   0.2500000   0.4375000   0.3333333), wk =   0.0208333
        k(   69) = (   0.2500000  -0.5000000   0.0000000), wk =   0.0052083
        k(   70) = (   0.2500000  -0.5000000   0.3333333), wk =   0.0104167
        k(   71) = (   0.3125000   0.3125000   0.0000000), wk =   0.0104167
        k(   72) = (   0.3125000   0.3125000   0.3333333), wk =   0.0208333
        k(   73) = (   0.3125000   0.3750000   0.0000000), wk =   0.0104167
        k(   74) = (   0.3125000   0.3750000   0.3333333), wk =   0.0208333
        k(   75) = (   0.3125000   0.4375000   0.0000000), wk =   0.0104167
        k(   76) = (   0.3125000   0.4375000   0.3333333), wk =   0.0208333
        k(   77) = (   0.3125000  -0.5000000   0.0000000), wk =   0.0052083
        k(   78) = (   0.3125000  -0.5000000   0.3333333), wk =   0.0104167
        k(   79) = (   0.3750000   0.3750000   0.0000000), wk =   0.0104167
        k(   80) = (   0.3750000   0.3750000   0.3333333), wk =   0.0208333
        k(   81) = (   0.3750000   0.4375000   0.0000000), wk =   0.0104167
        k(   82) = (   0.3750000   0.4375000   0.3333333), wk =   0.0208333
        k(   83) = (   0.3750000  -0.5000000   0.0000000), wk =   0.0052083
        k(   84) = (   0.3750000  -0.5000000   0.3333333), wk =   0.0104167
        k(   85) = (   0.4375000   0.4375000   0.0000000), wk =   0.0104167
        k(   86) = (   0.4375000   0.4375000   0.3333333), wk =   0.0208333
        k(   87) = (   0.4375000  -0.5000000   0.0000000), wk =   0.0052083
        k(   88) = (   0.4375000  -0.5000000   0.3333333), wk =   0.0104167
        k(   89) = (  -0.5000000  -0.5000000   0.0000000), wk =   0.0026042
        k(   90) = (  -0.5000000  -0.5000000   0.3333333), wk =   0.0052083
        k(   91) = (   0.0625000   0.0000000   0.0000000), wk =   0.0052083
        k(   92) = (   0.0625000   0.0000000  -0.3333333), wk =   0.0104167
        k(   93) = (   0.1250000   0.0000000   0.0000000), wk =   0.0052083
        k(   94) = (   0.1250000   0.0000000  -0.3333333), wk =   0.0104167
        k(   95) = (   0.1875000   0.0000000   0.0000000), wk =   0.0052083
        k(   96) = (   0.1875000   0.0000000  -0.3333333), wk =   0.0104167
        k(   97) = (   0.2500000   0.0000000   0.0000000), wk =   0.0052083
        k(   98) = (   0.2500000   0.0000000  -0.3333333), wk =   0.0104167
        k(   99) = (   0.3125000   0.0000000   0.0000000), wk =   0.0052083
        k(  100) = (   0.3125000   0.0000000  -0.3333333), wk =   0.0104167
        k(  101) = (   0.3750000   0.0000000   0.0000000), wk =   0.0052083
        k(  102) = (   0.3750000   0.0000000  -0.3333333), wk =   0.0104167
        k(  103) = (   0.4375000   0.0000000   0.0000000), wk =   0.0052083
        k(  104) = (   0.4375000   0.0000000  -0.3333333), wk =   0.0104167
        k(  105) = (  -0.5000000   0.0000000   0.0000000), wk =   0.0026042
        k(  106) = (  -0.5000000   0.0000000  -0.3333333), wk =   0.0052083
        k(  107) = (   0.1250000   0.0625000   0.0000000), wk =   0.0104167
        k(  108) = (   0.1250000   0.0625000  -0.3333333), wk =   0.0208333
        k(  109) = (   0.1875000   0.0625000   0.0000000), wk =   0.0104167
        k(  110) = (   0.1875000   0.0625000  -0.3333333), wk =   0.0208333
        k(  111) = (   0.2500000   0.0625000   0.0000000), wk =   0.0104167
        k(  112) = (   0.2500000   0.0625000  -0.3333333), wk =   0.0208333
        k(  113) = (   0.3125000   0.0625000   0.0000000), wk =   0.0104167
        k(  114) = (   0.3125000   0.0625000  -0.3333333), wk =   0.0208333
        k(  115) = (   0.3750000   0.0625000   0.0000000), wk =   0.0104167
        k(  116) = (   0.3750000   0.0625000  -0.3333333), wk =   0.0208333
        k(  117) = (   0.4375000   0.0625000   0.0000000), wk =   0.0104167
        k(  118) = (   0.4375000   0.0625000  -0.3333333), wk =   0.0208333
        k(  119) = (  -0.5000000   0.0625000   0.0000000), wk =   0.0052083
        k(  120) = (  -0.5000000   0.0625000  -0.3333333), wk =   0.0104167
        k(  121) = (   0.1875000   0.1250000   0.0000000), wk =   0.0104167
        k(  122) = (   0.1875000   0.1250000  -0.3333333), wk =   0.0208333
        k(  123) = (   0.2500000   0.1250000   0.0000000), wk =   0.0104167
        k(  124) = (   0.2500000   0.1250000  -0.3333333), wk =   0.0208333
        k(  125) = (   0.3125000   0.1250000   0.0000000), wk =   0.0104167
        k(  126) = (   0.3125000   0.1250000  -0.3333333), wk =   0.0208333
        k(  127) = (   0.3750000   0.1250000   0.0000000), wk =   0.0104167
        k(  128) = (   0.3750000   0.1250000  -0.3333333), wk =   0.0208333
        k(  129) = (   0.4375000   0.1250000   0.0000000), wk =   0.0104167
        k(  130) = (   0.4375000   0.1250000  -0.3333333), wk =   0.0208333
        k(  131) = (  -0.5000000   0.1250000   0.0000000), wk =   0.0052083
        k(  132) = (  -0.5000000   0.1250000  -0.3333333), wk =   0.0104167
        k(  133) = (   0.2500000   0.1875000   0.0000000), wk =   0.0104167
        k(  134) = (   0.2500000   0.1875000  -0.3333333), wk =   0.0208333
        k(  135) = (   0.3125000   0.1875000   0.0000000), wk =   0.0104167
        k(  136) = (   0.3125000   0.1875000  -0.3333333), wk =   0.0208333
        k(  137) = (   0.3750000   0.1875000   0.0000000), wk =   0.0104167
        k(  138) = (   0.3750000   0.1875000  -0.3333333), wk =   0.0208333
        k(  139) = (   0.4375000   0.1875000   0.0000000), wk =   0.0104167
        k(  140) = (   0.4375000   0.1875000  -0.3333333), wk =   0.0208333
        k(  141) = (  -0.5000000   0.1875000   0.0000000), wk =   0.0052083
        k(  142) = (  -0.5000000   0.1875000  -0.3333333), wk =   0.0104167
        k(  143) = (   0.3125000   0.2500000   0.0000000), wk =   0.0104167
        k(  144) = (   0.3125000   0.2500000  -0.3333333), wk =   0.0208333
        k(  145) = (   0.3750000   0.2500000   0.0000000), wk =   0.0104167
        k(  146) = (   0.3750000   0.2500000  -0.3333333), wk =   0.0208333
        k(  147) = (   0.4375000   0.2500000   0.0000000), wk =   0.0104167
        k(  148) = (   0.4375000   0.2500000  -0.3333333), wk =   0.0208333
        k(  149) = (  -0.5000000   0.2500000   0.0000000), wk =   0.0052083
        k(  150) = (  -0.5000000   0.2500000  -0.3333333), wk =   0.0104167
        k(  151) = (   0.3750000   0.3125000   0.0000000), wk =   0.0104167
        k(  152) = (   0.3750000   0.3125000  -0.3333333), wk =   0.0208333
        k(  153) = (   0.4375000   0.3125000   0.0000000), wk =   0.0104167
        k(  154) = (   0.4375000   0.3125000  -0.3333333), wk =   0.0208333
        k(  155) = (  -0.5000000   0.3125000   0.0000000), wk =   0.0052083
        k(  156) = (  -0.5000000   0.3125000  -0.3333333), wk =   0.0104167
        k(  157) = (   0.4375000   0.3750000   0.0000000), wk =   0.0104167
        k(  158) = (   0.4375000   0.3750000  -0.3333333), wk =   0.0208333
        k(  159) = (  -0.5000000   0.3750000   0.0000000), wk =   0.0052083
        k(  160) = (  -0.5000000   0.3750000  -0.3333333), wk =   0.0104167
        k(  161) = (  -0.5000000   0.4375000   0.0000000), wk =   0.0052083
        k(  162) = (  -0.5000000   0.4375000  -0.3333333), wk =   0.0104167

     Dense  grid:   106117 G-vectors     FFT dimensions: (  40,  40, 135)

     Smooth grid:    37477 G-vectors     FFT dimensions: (  27,  27,  96)

     Largest allocated arrays     est. size (Mb)     dimensions
        Kohn-Sham Wavefunctions         3.10 Mb     (    4724,   43)
        NL pseudopotentials             9.51 Mb     (    4724,  132)
        Each V/rho on FFT grid          3.30 Mb     (  216000)
        Each G-vector array             0.81 Mb     (  106117)
        G-vector shells                 0.05 Mb     (    6470)
     Largest temporary arrays     est. size (Mb)     dimensions
        Auxiliary wavefunctions        12.40 Mb     (    4724,  172)
        Each subspace H/S matrix        0.45 Mb     (     172,  172)
        Each <psi_i|beta_j> matrix      0.09 Mb     (     132,   43)
        Arrays for rho mixing          26.37 Mb     (  216000,    8)

     Initial potential from superposition of free atoms
     Check: negative starting charge=   -0.378662

     starting charge   71.99505, renormalised to   72.00000

     negative rho (up, down):  3.787E-01 0.000E+00
     Starting wfc are   68 randomized atomic wfcs

     total cpu time spent up to now is       82.6 secs

     Self-consistent Calculation

     iteration #  1     ecut=    45.00 Ry     beta=0.40
     Davidson diagonalization with overlap
     ethr =  1.00E-02,  avg # of iterations =  2.0

     Threshold (ethr) on eigenvalues was too large:
     Diagonalizing with lowered threshold

     Davidson diagonalization with overlap
     ethr =  2.07E-04,  avg # of iterations =  2.6

     negative rho (up, down):  3.864E-01 0.000E+00

     total cpu time spent up to now is      356.8 secs

     total energy              =    -640.00964818 Ry
     Harris-Foulkes estimate   =    -640.07545724 Ry
     estimated scf accuracy    <       0.15350355 Ry

     iteration #  2     ecut=    45.00 Ry     beta=0.40
     Davidson diagonalization with overlap
     ethr =  2.13E-04,  avg # of iterations =  2.0

     negative rho (up, down):  3.921E-01 0.000E+00

     total cpu time spent up to now is      506.3 secs

     total energy              =    -640.02827039 Ry
     Harris-Foulkes estimate   =    -640.03246567 Ry
     estimated scf accuracy    <       0.01854943 Ry

     iteration #  3     ecut=    45.00 Ry     beta=0.40
     Davidson diagonalization with overlap
     ethr =  2.58E-05,  avg # of iterations =  1.9

     negative rho (up, down):  3.984E-01 0.000E+00

     total cpu time spent up to now is      640.7 secs

     total energy              =    -640.02788780 Ry
     Harris-Foulkes estimate   =    -640.02901441 Ry
     estimated scf accuracy    <       0.00493626 Ry

     iteration #  4     ecut=    45.00 Ry     beta=0.40
     Davidson diagonalization with overlap
     ethr =  6.86E-06,  avg # of iterations =  5.7

     negative rho (up, down):  3.986E-01 0.000E+00

     total cpu time spent up to now is      835.1 secs

     total energy              =    -640.02794843 Ry
     Harris-Foulkes estimate   =    -640.02855507 Ry
     estimated scf accuracy    <       0.00401452 Ry

     iteration #  5     ecut=    45.00 Ry     beta=0.40
     Davidson diagonalization with overlap
     ethr =  5.58E-06,  avg # of iterations =  3.3

     negative rho (up, down):  3.997E-01 0.000E+00

     total cpu time spent up to now is      979.7 secs

     total energy              =    -640.02814167 Ry
     Harris-Foulkes estimate   =    -640.02830629 Ry
     estimated scf accuracy    <       0.00045497 Ry

     iteration #  6     ecut=    45.00 Ry     beta=0.40
     Davidson diagonalization with overlap
     ethr =  6.32E-07,  avg # of iterations =  4.0

     negative rho (up, down):  3.997E-01 0.000E+00

     total cpu time spent up to now is     1136.2 secs

     total energy              =    -640.02821134 Ry
     Harris-Foulkes estimate   =    -640.02830456 Ry
     estimated scf accuracy    <       0.00023698 Ry

     iteration #  7     ecut=    45.00 Ry     beta=0.40
     Davidson diagonalization with overlap
     ethr =  3.29E-07,  avg # of iterations =  2.1

     negative rho (up, down):  3.998E-01 0.000E+00

     total cpu time spent up to now is     1293.2 secs

     total energy              =    -640.02823422 Ry
     Harris-Foulkes estimate   =    -640.02824307 Ry
     estimated scf accuracy    <       0.00004993 Ry

     iteration #  8     ecut=    45.00 Ry     beta=0.40
     Davidson diagonalization with overlap
     ethr =  6.93E-08,  avg # of iterations =  2.0

     negative rho (up, down):  3.998E-01 0.000E+00

     total cpu time spent up to now is     1416.1 secs

     total energy              =    -640.02823741 Ry
     Harris-Foulkes estimate   =    -640.02823831 Ry
     estimated scf accuracy    <       0.00000211 Ry

     iteration #  9     ecut=    45.00 Ry     beta=0.40
     Davidson diagonalization with overlap
     ethr =  2.94E-09,  avg # of iterations =  3.3

     negative rho (up, down):  3.998E-01 0.000E+00

     total cpu time spent up to now is    30144.4 secs

     total energy              =    -640.02823843 Ry
     Harris-Foulkes estimate   =    -640.02823860 Ry
     estimated scf accuracy    <       0.00000102 Ry

     iteration # 10     ecut=    45.00 Ry     beta=0.40
     Davidson diagonalization with overlap
     ethr =  1.41E-09,  avg # of iterations =  1.5

     negative rho (up, down):  3.998E-01 0.000E+00

     total cpu time spent up to now is    30277.3 secs

     total energy              =    -640.02823838 Ry
     Harris-Foulkes estimate   =    -640.02823848 Ry
     estimated scf accuracy    <       0.00000036 Ry

     iteration # 11     ecut=    45.00 Ry     beta=0.40
     Davidson diagonalization with overlap
     ethr =  4.95E-10,  avg # of iterations =  2.6

     negative rho (up, down):  3.998E-01 0.000E+00

     total cpu time spent up to now is    30462.4 secs

     total energy              =    -640.02823843 Ry
     Harris-Foulkes estimate   =    -640.02823843 Ry
     estimated scf accuracy    <          9.8E-09 Ry

     iteration # 12     ecut=    45.00 Ry     beta=0.40
     Davidson diagonalization with overlap
     ethr =  1.36E-11,  avg # of iterations =  3.0

     negative rho (up, down):  3.998E-01 0.000E+00

     total cpu time spent up to now is    30652.8 secs

     total energy              =    -640.02823843 Ry
     Harris-Foulkes estimate   =    -640.02823843 Ry
     estimated scf accuracy    <          2.5E-09 Ry

     iteration # 13     ecut=    45.00 Ry     beta=0.40
     Davidson diagonalization with overlap
     ethr =  3.42E-12,  avg # of iterations =  2.9

     negative rho (up, down):  3.998E-01 0.000E+00

     total cpu time spent up to now is    30868.3 secs

     End of self-consistent calculation

          k = 0.0000 0.0000 0.0000 (  4655 PWs)   bands (ev):

   -52.9650 -52.9591 -52.9591 -52.9531 -19.5680 -19.5182 -19.5182 -19.5138
   -19.5138 -19.4361 -19.4361 -19.3594 -19.3594 -19.3551 -19.3551 -19.3006
     1.1787   2.2243   2.2243   3.8116   8.2480  10.7603  10.7603  12.1428
    12.3829  12.3829  12.4275  12.4276  12.8021  12.8022  12.9221  13.3961
    13.6798  13.6798  14.3859  14.3860  16.2164  16.5769  16.5769  16.9845
    17.7434  17.7484  17.7484

     occupation numbers 
     1.0000   1.0000   1.0000   1.0000   1.0000   1.0000   1.0000   1.0000
     1.0000   1.0000   1.0000   1.0000   1.0000   1.0000   1.0000   1.0000
     1.0000   1.0000   1.0000   1.0000   1.0000   1.0000   1.0000   1.0000
     1.0000   1.0000   1.0000   1.0000   1.0000   1.0000   1.0000   1.0000
     1.0000   1.0000   1.0000   1.0000   0.0000   0.0000   0.0000   0.0000
     0.0000   0.0000   0.0000

          k = 0.0000 0.0000 0.0988 (  4679 PWs)   bands (ev):

   -52.9642 -52.9620 -52.9561 -52.9539 -19.5508 -19.5172 -19.5172 -19.5150
   -19.5150 -19.5025 -19.3688 -19.3584 -19.3584 -19.3562 -19.3562 -19.3190
     1.3040   1.6664   2.8973   3.5266   8.6504   9.6176  11.6105  11.9981
    12.4602  12.4603  12.5125  12.6579  12.6579  12.7738  12.7745  13.2712
    13.8878  13.8878  14.2279  14.2279  16.2624  16.3915  16.7738  16.9265
    17.9204  17.9204  18.0442

     occupation numbers 
     1.0000   1.0000   1.0000   1.0000   1.0000   1.0000   1.0000   1.0000
     1.0000   1.0000   1.0000   1.0000   1.0000   1.0000   1.0000   1.0000
     1.0000   1.0000   1.0000   1.0000   1.0000   1.0000   1.0000   1.0000
     1.0000   1.0000   1.0000   1.0000   1.0000   1.0000   1.0000   1.0000
     1.0000   1.0000   1.0000   1.0000   0.0000   0.0000   0.0000   0.0000
     0.0000   0.0000   0.0000

          k = 0.0000 0.0625 0.0000 (  4667 PWs)   bands (ev):

   -52.9648 -52.9589 -52.9588 -52.9530 -19.5668 -19.5262 -19.5197 -19.5176
   -19.5132 -19.4366 -19.4338 -19.3658 -19.3601 -19.3587 -19.3546 -19.3006
     1.2328   2.2630   2.2728   3.8330   8.2779  10.7222  10.7647  12.0005
    12.0579  12.3138  12.3980  12.6926  12.7279  12.7647  12.9933  13.2587
    13.6570  13.8042  14.1895  14.4730  16.1311  16.4073  16.8253  16.8734
    17.5767  17.7634  17.7680

     occupation numbers 
     1.0000   1.0000   1.0000   1.0000   1.0000   1.0000   1.0000   1.0000
     1.0000   1.0000   1.0000   1.0000   1.0000   1.0000   1.0000   1.0000
     1.0000   1.0000   1.0000   1.0000   1.0000   1.0000   1.0000   1.0000
     1.0000   1.0000   1.0000   1.0000   1.0000   1.0000   1.0000   1.0000
     1.0000   1.0000   1.0000   1.0000   0.0000   0.0000   0.0000   0.0000
     0.0000   0.0000   0.0000

          k = 0.0000 0.0625 0.0988 (  4669 PWs)   bands (ev):

   -52.9640 -52.9618 -52.9559 -52.9538 -19.5503 -19.5261 -19.5204 -19.5165
   -19.5143 -19.4995 -19.3716 -19.3649 -19.3586 -19.3576 -19.3556 -19.3185
     1.3569   1.7158   2.9329   3.5532   8.6721   9.6208  11.5694  11.8919
    12.2049  12.4687  12.4899  12.5163  12.6442  12.7969  12.8985  13.2418
    13.8156  13.9646  14.0736  14.3058  16.2066  16.3589  16.7792  16.8291
    17.6702  17.8744  18.0029

     occupation numbers 
     1.0000   1.0000   1.0000   1.0000   1.0000   1.0000   1.0000   1.0000
     1.0000   1.0000   1.0000   1.0000   1.0000   1.0000   1.0000   1.0000
     1.0000   1.0000   1.0000   1.0000   1.0000   1.0000   1.0000   1.0000
     1.0000   1.0000   1.0000   1.0000   1.0000   1.0000   1.0000   1.0000
     1.0000   1.0000   1.0000   1.0000   0.0000   0.0000   0.0000   0.0000
     0.0000   0.0000   0.0000

          k = 0.0000 0.1250 0.0000 (  4678 PWs)   bands (ev):

   -52.9641 -52.9586 -52.9582 -52.9527 -19.5662 -19.5477 -19.5340 -19.5155
   -19.5114 -19.4390 -19.4280 -19.3839 -19.3731 -19.3567 -19.3528 -19.3011
     1.3925   2.3765   2.4145   3.8921   8.3626  10.5859  10.7027  11.6775
    11.6902  12.1457  12.1815  12.4355  12.6550  13.0245  13.1436  13.2781
    13.5863  13.7753  14.0010  14.7176  15.9565  16.0241  16.6542  17.2233
    17.3608  17.5209  17.8229

     occupation numbers 
     1.0000   1.0000   1.0000   1.0000   1.0000   1.0000   1.0000   1.0000
     1.0000   1.0000   1.0000   1.0000   1.0000   1.0000   1.0000   1.0000
     1.0000   1.0000   1.0000   1.0000   1.0000   1.0000   1.0000   1.0000
     1.0000   1.0000   1.0000   1.0000   1.0000   1.0000   1.0000   1.0000
     1.0000   1.0000   1.0000   1.0023   0.0000   0.0000   0.0000   0.0000
     0.0000   0.0000   0.0000

          k = 0.0000 0.1250 0.0988 (  4669 PWs)   bands (ev):

   -52.9633 -52.9612 -52.9555 -52.9534 -19.5550 -19.5476 -19.5298 -19.5145
   -19.5125 -19.4946 -19.3847 -19.3827 -19.3604 -19.3558 -19.3538 -19.3180
     1.5129   1.8609   3.0363   3.6281   8.7303   9.6155  11.3109  11.5684
    11.8811  12.1079  12.3876  12.4845  12.5933  12.8764  13.0969  13.2651
    13.6352  13.7287  14.1711  14.5322  16.0349  16.0608  16.6828  16.9690
    17.3069  17.4719  18.2056

     occupation numbers 
     1.0000   1.0000   1.0000   1.0000   1.0000   1.0000   1.0000   1.0000
     1.0000   1.0000   1.0000   1.0000   1.0000   1.0000   1.0000   1.0000
     1.0000   1.0000   1.0000   1.0000   1.0000   1.0000   1.0000   1.0000
     1.0000   1.0000   1.0000   1.0000   1.0000   1.0000   1.0000   1.0000
     1.0000   1.0000   1.0000   1.0000   0.0000   0.0000   0.0000   0.0000
     0.0000   0.0000   0.0000

          k = 0.0000 0.1875 0.0000 (  4672 PWs)   bands (ev):

   -52.9631 -52.9581 -52.9571 -52.9522 -19.5805 -19.5780 -19.5394 -19.5124
   -19.5088 -19.4463 -19.4226 -19.4097 -19.3875 -19.3538 -19.3503 -19.3030
     1.6500   2.5571   2.6373   3.9743   8.4843  10.3154  10.3401  11.2797
    11.4605  11.5472  12.0918  12.4646  12.4848  13.2867  13.3062  13.3537
    13.4451  13.4673  14.2332  15.0957  15.6094  15.8037  16.4762  16.8325
    17.0836  17.6206  17.7960

     occupation numbers 
     1.0000   1.0000   1.0000   1.0000   1.0000   1.0000   1.0000   1.0000
     1.0000   1.0000   1.0000   1.0000   1.0000   1.0000   1.0000   1.0000
     1.0000   1.0000   1.0000   1.0000   1.0000   1.0000   1.0000   1.0000
     1.0000   1.0000   1.0000   1.0000   1.0000   1.0000   1.0000   1.0000
     1.0000   1.0000   1.0000   1.0296   0.0030   0.0000   0.0000   0.0000
     0.0000   0.0000   0.0000

          k = 0.0000 0.1875 0.0988 (  4669 PWs)   bands (ev):

   -52.9623 -52.9604 -52.9549 -52.9529 -19.5781 -19.5774 -19.5280 -19.5116
   -19.5097 -19.4900 -19.4081 -19.4065 -19.3600 -19.3529 -19.3512 -19.3189
     1.7641   2.0927   3.1959   3.7374   8.8023   9.5574  10.7213  11.0172
    11.6468  11.6841  12.4184  12.4741  12.4842  13.0380  13.2765  13.3432
    13.3674  13.4234  14.4593  14.8794  15.6868  15.8005  16.6229  16.9296
    17.0683  17.1327  17.8358

     occupation numbers 
     1.0000   1.0000   1.0000   1.0000   1.0000   1.0000   1.0000   1.0000
     1.0000   1.0000   1.0000   1.0000   1.0000   1.0000   1.0000   1.0000
     1.0000   1.0000   1.0000   1.0000   1.0000   1.0000   1.0000   1.0000
     1.0000   1.0000   1.0000   1.0000   1.0000   1.0000   1.0000   1.0000
     1.0000   1.0000   1.0000   1.0336   0.0004   0.0000   0.0000   0.0000
     0.0000   0.0000   0.0000

          k = 0.0000 0.2500 0.0000 (  4682 PWs)   bands (ev):

   -52.9618 -52.9576 -52.9559 -52.9517 -19.6124 -19.6105 -19.5318 -19.5088
   -19.5058 -19.4624 -19.4387 -19.4237 -19.3910 -19.3504 -19.3473 -19.3068
     1.9915   2.7921   2.9189   4.0566   8.6043   9.6396  10.0339  10.6161
    11.0056  11.6914  12.0997  12.2815  12.4125  13.0540  13.3122  13.4767
    13.4941  13.6026  14.4623  15.2746  15.5760  15.7064  16.4035  16.4742
    16.8216  17.4305  17.5754

     occupation numbers 
     1.0000   1.0000   1.0000   1.0000   1.0000   1.0000   1.0000   1.0000
     1.0000   1.0000   1.0000   1.0000   1.0000   1.0000   1.0000   1.0000
     1.0000   1.0000   1.0000   1.0000   1.0000   1.0000   1.0000   1.0000
     1.0000   1.0000   1.0000   1.0000   1.0000   1.0000   1.0000   1.0000
     1.0000   1.0000   1.0000   0.4822   0.0064   0.0003   0.0000   0.0000
     0.0000   0.0000   0.0000

          k = 0.0000 0.2500 0.0988 (  4664 PWs)   bands (ev):

   -52.9611 -52.9594 -52.9541 -52.9523 -19.6113 -19.6103 -19.5207 -19.5080
   -19.5066 -19.4889 -19.4358 -19.4296 -19.3589 -19.3496 -19.3480 -19.3213
     2.0960   2.3954   3.3915   3.8584   8.8457   9.3728  10.0550  10.3221
    11.3167  11.5999  12.3138  12.3796  12.5320  13.1069  13.2354  13.2409
    13.4148  13.4239  14.7541  15.2795  15.3895  15.6118  16.6223  16.6267
    16.8026  17.1874  17.4911

     occupation numbers 
     1.0000   1.0000   1.0000   1.0000   1.0000   1.0000   1.0000   1.0000
     1.0000   1.0000   1.0000   1.0000   1.0000   1.0000   1.0000   1.0000
     1.0000   1.0000   1.0000   1.0000   1.0000   1.0000   1.0000   1.0000
     1.0000   1.0000   1.0000   1.0000   1.0000   1.0000   1.0000   1.0000
     1.0000   1.0000   1.0048   0.4641   0.1517   0.0029   0.0000   0.0000
     0.0000   0.0000   0.0000

          k = 0.0000 0.3125 0.0000 (  4670 PWs)   bands (ev):

   -52.9604 -52.9571 -52.9545 -52.9512 -19.6457 -19.6428 -19.5221 -19.5052
   -19.5028 -19.4851 -19.4647 -19.4308 -19.3821 -19.3468 -19.3445 -19.3128
     2.3951   3.0636   3.2217   4.1105   8.6461   8.9305   9.7296   9.9107
    10.7999  11.9137  12.0817  12.1141  12.2310  12.9304  13.1478  13.5469
    13.6059  13.7483  14.6188  15.0804  15.6406  15.9476  16.3687  16.4419
    16.8405  17.3163  17.4932

     occupation numbers 
     1.0000   1.0000   1.0000   1.0000   1.0000   1.0000   1.0000   1.0000
     1.0000   1.0000   1.0000   1.0000   1.0000   1.0000   1.0000   1.0000
     1.0000   1.0000   1.0000   1.0000   1.0000   1.0000   1.0000   1.0000
     1.0000   1.0000   1.0000   1.0000   1.0000   1.0000   1.0000   1.0000
     1.0000   1.0000   1.0002   1.0495   0.0014   0.0000   0.0000   0.0000
     0.0000   0.0000   0.0000

          k = 0.0000 0.3125 0.0988 (  4666 PWs)   bands (ev):

   -52.9599 -52.9584 -52.9533 -52.9518 -19.6446 -19.6431 -19.5154 -19.5046
   -19.5033 -19.4970 -19.4589 -19.4448 -19.3572 -19.3461 -19.3450 -19.3253
     2.4863   2.7451   3.5915   3.9601   8.7906   8.9556   9.5803   9.6675
    11.1439  11.6020  12.1188  12.1941  12.6483  12.9716  13.0804  13.3326
    13.5248  13.5418  14.9323  15.2279  15.5155  15.5345  16.5966  16.6380
    16.7993  17.1553  17.4232

     occupation numbers 
     1.0000   1.0000   1.0000   1.0000   1.0000   1.0000   1.0000   1.0000
     1.0000   1.0000   1.0000   1.0000   1.0000   1.0000   1.0000   1.0000
     1.0000   1.0000   1.0000   1.0000   1.0000   1.0000   1.0000   1.0000
     1.0000   1.0000   1.0000   1.0000   1.0000   1.0000   1.0000   1.0000
     1.0000   1.0000   1.0573   0.6567   0.0213   0.0149   0.0000   0.0000
     0.0000   0.0000   0.0000

          k = 0.0000 0.3750 0.0000 (  4700 PWs)   bands (ev):

   -52.9592 -52.9569 -52.9533 -52.9510 -19.6734 -19.6709 -19.5192 -19.5071
   -19.5020 -19.5004 -19.4780 -19.4398 -19.3697 -19.3437 -19.3421 -19.3210
     2.8262   3.3472   3.4845   4.1074   8.3355   8.4916   9.4213   9.4711
    10.7958  11.8467  11.9198  12.0229  12.3760  12.8837  13.0043  13.4978
    13.6074  13.7983  14.7414  15.0442  15.5634  15.7973  16.5683  16.8777
    17.1245  17.3491  17.5394

     occupation numbers 
     1.0000   1.0000   1.0000   1.0000   1.0000   1.0000   1.0000   1.0000
     1.0000   1.0000   1.0000   1.0000   1.0000   1.0000   1.0000   1.0000
     1.0000   1.0000   1.0000   1.0000   1.0000   1.0000   1.0000   1.0000
     1.0000   1.0000   1.0000   1.0000   1.0000   1.0000   1.0000   1.0000
     1.0000   1.0000   1.0037   1.0773   0.0083   0.0000   0.0000   0.0000
     0.0000   0.0000   0.0000

          k = 0.0000 0.3750 0.0988 (  4678 PWs)   bands (ev):

   -52.9587 -52.9577 -52.9525 -52.9514 -19.6724 -19.6710 -19.5189 -19.5127
   -19.5016 -19.5007 -19.4682 -19.4503 -19.3543 -19.3432 -19.3425 -19.3307
     2.8999   3.1059   3.7500   4.0069   8.4368   8.5383   9.2473   9.3141
    11.1309  11.6119  11.9491  12.0015  12.7526  12.8951  12.9564  13.2681
    13.5797  13.7047  14.9625  15.2069  15.4858  15.4868  16.6563  16.9789
    17.0589  17.0922  17.6460

     occupation numbers 
     1.0000   1.0000   1.0000   1.0000   1.0000   1.0000   1.0000   1.0000
     1.0000   1.0000   1.0000   1.0000   1.0000   1.0000   1.0000   1.0000
     1.0000   1.0000   1.0000   1.0000   1.0000   1.0000   1.0000   1.0000
     1.0000   1.0000   1.0000   1.0000   1.0000   1.0000   1.0000   1.0000
     1.0000   1.0000   1.0708   0.7339   0.0363   0.0356   0.0000   0.0000
     0.0000   0.0000   0.0000

          k = 0.0000 0.4375 0.0000 (  4696 PWs)   bands (ev):

   -52.9581 -52.9569 -52.9522 -52.9511 -19.6913 -19.6901 -19.5257 -19.5226
   -19.4997 -19.4989 -19.4731 -19.4502 -19.3561 -19.3415 -19.3406 -19.3312
     3.2276   3.5763   3.6558   4.0270   7.9737   8.1632   9.2217   9.2870
    10.9781  11.5893  11.8218  11.8719  12.7539  12.8558  12.9041  13.3844
    13.5615  13.6615  14.9660  15.1343  15.4449  15.5530  16.7515  17.1665
    17.4176  17.5188  17.8810

     occupation numbers 
     1.0000   1.0000   1.0000   1.0000   1.0000   1.0000   1.0000   1.0000
     1.0000   1.0000   1.0000   1.0000   1.0000   1.0000   1.0000   1.0000
     1.0000   1.0000   1.0000   1.0000   1.0000   1.0000   1.0000   1.0000
     1.0000   1.0000   1.0000   1.0000   1.0000   1.0000   1.0000   1.0000
     1.0000   1.0000   1.0722   0.9557   0.0702   0.0103   0.0000   0.0000
     0.0000   0.0000   0.0000

          k = 0.0000 0.4375 0.0988 (  4682 PWs)   bands (ev):

   -52.9579 -52.9573 -52.9519 -52.9513 -19.6905 -19.6899 -19.5279 -19.5261
   -19.4995 -19.4990 -19.4649 -19.4537 -19.3497 -19.3412 -19.3408 -19.3372
     3.2785   3.4177   3.8189   3.9692   8.0742   8.1843   9.0881   9.1454
    11.2392  11.5471  11.8398  11.8654  12.8467  12.8715  12.8781  13.1572
    13.6201  13.7462  15.0101  15.2838  15.3290  15.4616  16.6975  16.9241
    17.4731  17.5077  17.8302

     occupation numbers 
     1.0000   1.0000   1.0000   1.0000   1.0000   1.0000   1.0000   1.0000
     1.0000   1.0000   1.0000   1.0000   1.0000   1.0000   1.0000   1.0000
     1.0000   1.0000   1.0000   1.0000   1.0000   1.0000   1.0000   1.0000
     1.0000   1.0000   1.0000   1.0000   1.0000   1.0000   1.0000   1.0000
     1.0000   1.0000   1.0832   0.4488   0.2999   0.0541   0.0000   0.0000
     0.0000   0.0000   0.0000

          k = 0.0000-0.5000 0.0000 (  4690 PWs)   bands (ev):

   -52.9574 -52.9573 -52.9515 -52.9514 -19.6971 -19.6971 -19.5288 -19.5288
   -19.4986 -19.4986 -19.4618 -19.4618 -19.3430 -19.3430 -19.3404 -19.3404
     3.5123   3.5123   3.8661   3.8661   7.9276   7.9276   9.1973   9.1973
    11.2715  11.2715  11.8035  11.8035  12.8565  12.8565  13.1270  13.1271
    13.5531  13.5531  15.2635  15.2635  15.2885  15.2885  16.9601  16.9601
    17.6534  17.6534  17.9439

     occupation numbers 
     1.0000   1.0000   1.0000   1.0000   1.0000   1.0000   1.0000   1.0000
     1.0000   1.0000   1.0000   1.0000   1.0000   1.0000   1.0000   1.0000
     1.0000   1.0000   1.0000   1.0000   1.0000   1.0000   1.0000   1.0000
     1.0000   1.0000   1.0000   1.0000   1.0000   1.0000   1.0000   1.0000
     1.0000   1.0000   0.5231   0.5231   0.4321   0.4320   0.0000   0.0000
     0.0000   0.0000   0.0000

          k = 0.0000-0.5000 0.0988 (  4696 PWs)   bands (ev):

   -52.9574 -52.9573 -52.9515 -52.9514 -19.6968 -19.6968 -19.5316 -19.5316
   -19.4986 -19.4986 -19.4587 -19.4587 -19.3438 -19.3438 -19.3404 -19.3404
     3.5148   3.5148   3.8620   3.8620   7.9883   7.9883   9.0661   9.0661
    11.4024  11.4024  11.8097  11.8097  12.8351  12.8351  13.0237  13.0237
    13.6837  13.6837  15.1537  15.1537  15.3896  15.3896  16.7899  16.7899
    17.6623  17.6623  17.8709

     occupation numbers 
     1.0000   1.0000   1.0000   1.0000   1.0000   1.0000   1.0000   1.0000
     1.0000   1.0000   1.0000   1.0000   1.0000   1.0000   1.0000   1.0000
     1.0000   1.0000   1.0000   1.0000   1.0000   1.0000   1.0000   1.0000
     1.0000   1.0000   1.0000   1.0000   1.0000   1.0000   1.0000   1.0000
     1.0000   1.0000   0.9059   0.9058   0.1515   0.1515   0.0000   0.0000
     0.0000   0.0000   0.0000

          k = 0.0625 0.0625 0.0000 (  4663 PWs)   bands (ev):

   -52.9645 -52.9587 -52.9587 -52.9529 -19.5657 -19.5255 -19.5255 -19.5204
   -19.5178 -19.4342 -19.4342 -19.3659 -19.3644 -19.3595 -19.3595 -19.3005
     1.2863   2.3108   2.3108   3.8535   8.3109  10.7350  10.7350  11.8894
    12.0161  12.0162  12.6333  12.6466  12.6466  12.7673  12.8239  13.2049
    13.7154  13.9013  14.2707  14.2708  16.0326  16.6697  16.6697  16.7382
    17.6018  17.6018  17.8514

     occupation numbers 
     1.0000   1.0000   1.0000   1.0000   1.0000   1.0000   1.0000   1.0000
     1.0000   1.0000   1.0000   1.0000   1.0000   1.0000   1.0000   1.0000
     1.0000   1.0000   1.0000   1.0000   1.0000   1.0000   1.0000   1.0000
     1.0000   1.0000   1.0000   1.0000   1.0000   1.0000   1.0000   1.0000
     1.0000   1.0000   1.0000   1.0000   0.0000   0.0000   0.0000   0.0000
     0.0000   0.0000   0.0000

          k = 0.0625 0.0625 0.0988 (  4664 PWs)   bands (ev):

   -52.9637 -52.9616 -52.9558 -52.9536 -19.5497 -19.5265 -19.5240 -19.5217
   -19.5179 -19.4965 -19.3734 -19.3652 -19.3632 -19.3609 -19.3561 -19.3180
     1.4092   1.7645   2.9679   3.5789   8.6972   9.6288  11.5431  11.8044
    12.1544  12.2039  12.5020  12.5542  12.6158  12.7126  12.8817  13.1815
    13.8614  14.0038  14.1076  14.2204  16.1510  16.4436  16.6642  16.6986
    17.7224  17.8566  17.9786

     occupation numbers 
     1.0000   1.0000   1.0000   1.0000   1.0000   1.0000   1.0000   1.0000
     1.0000   1.0000   1.0000   1.0000   1.0000   1.0000   1.0000   1.0000
     1.0000   1.0000   1.0000   1.0000   1.0000   1.0000   1.0000   1.0000
     1.0000   1.0000   1.0000   1.0000   1.0000   1.0000   1.0000   1.0000
     1.0000   1.0000   1.0000   1.0000   0.0000   0.0000   0.0000   0.0000
     0.0000   0.0000   0.0000

          k = 0.0625 0.1250 0.0000 (  4668 PWs)   bands (ev):

   -52.9639 -52.9584 -52.9580 -52.9525 -19.5651 -19.5469 -19.5339 -19.5233
   -19.5169 -19.4366 -19.4286 -19.3832 -19.3724 -19.3631 -19.3577 -19.3010
     1.4443   2.4223   2.4504   3.9103   8.4039  10.6154  10.7062  11.5988
    11.6270  11.9480  12.1828  12.5184  12.5340  12.8662  12.8712  13.2680
    13.8120  13.8873  14.0758  14.4795  15.8449  16.3394  16.4753  17.1835
    17.3157  17.6592  17.6973

     occupation numbers 
     1.0000   1.0000   1.0000   1.0000   1.0000   1.0000   1.0000   1.0000
     1.0000   1.0000   1.0000   1.0000   1.0000   1.0000   1.0000   1.0000
     1.0000   1.0000   1.0000   1.0000   1.0000   1.0000   1.0000   1.0000
     1.0000   1.0000   1.0000   1.0000   1.0000   1.0000   1.0000   1.0000
     1.0000   1.0000   1.0000   1.0000   0.0000   0.0000   0.0000   0.0000
     0.0000   0.0000   0.0000

          k = 0.0625 0.1250 0.0988 (  4663 PWs)   bands (ev):

   -52.9631 -52.9610 -52.9554 -52.9533 -19.5542 -19.5468 -19.5307 -19.5231
   -19.5167 -19.4917 -19.3846 -19.3822 -19.3638 -19.3621 -19.3550 -19.3175
     1.5635   1.9079   3.0689   3.6514   8.7646   9.6366  11.3210  11.5179
    11.8258  12.0981  12.1651  12.4881  12.5413  12.6806  12.9558  13.1665
    13.8180  13.8623  14.2163  14.4124  15.9823  16.2032  16.5021  16.8057
    17.4402  17.6445  18.0840

     occupation numbers 
     1.0000   1.0000   1.0000   1.0000   1.0000   1.0000   1.0000   1.0000
     1.0000   1.0000   1.0000   1.0000   1.0000   1.0000   1.0000   1.0000
     1.0000   1.0000   1.0000   1.0000   1.0000   1.0000   1.0000   1.0000
     1.0000   1.0000   1.0000   1.0000   1.0000   1.0000   1.0000   1.0000
     1.0000   1.0000   1.0000   1.0000   0.0000   0.0000   0.0000   0.0000
     0.0000   0.0000   0.0000

          k = 0.0625 0.1875 0.0000 (  4679 PWs)   bands (ev):

   -52.9628 -52.9579 -52.9570 -52.9521 -19.5794 -19.5772 -19.5393 -19.5203
   -19.5141 -19.4441 -19.4229 -19.4090 -19.3870 -19.3602 -19.3551 -19.3028
     1.6987   2.5996   2.6697   3.9892   8.5369  10.3508  10.3811  11.2329
    11.4293  11.4581  11.9612  12.3397  12.4394  12.9395  12.9685  13.4072
    13.6186  13.8581  14.2860  14.7421  15.7012  16.0491  16.2673  16.9020
    17.2681  17.5425  18.0026

     occupation numbers 
     1.0000   1.0000   1.0000   1.0000   1.0000   1.0000   1.0000   1.0000
     1.0000   1.0000   1.0000   1.0000   1.0000   1.0000   1.0000   1.0000
     1.0000   1.0000   1.0000   1.0000   1.0000   1.0000   1.0000   1.0000
     1.0000   1.0000   1.0000   1.0000   1.0000   1.0000   1.0000   1.0000
     1.0000   1.0000   1.0000   1.0038   0.0003   0.0000   0.0000   0.0000
     0.0000   0.0000   0.0000

          k = 0.0625 0.1875 0.0988 (  4675 PWs)   bands (ev):

   -52.9621 -52.9602 -52.9547 -52.9528 -19.5772 -19.5766 -19.5295 -19.5200
   -19.5135 -19.4872 -19.4074 -19.4061 -19.3632 -19.3594 -19.3530 -19.3183
     1.8115   2.1366   3.2248   3.7572   8.8493   9.5956  10.7404  11.0034
    11.6007  11.6229  12.2359  12.3398  12.4328  12.7904  12.9924  13.2043
    13.6546  13.7400  14.5124  14.7177  15.7296  15.8578  16.4325  16.9578
    17.1337  17.2687  18.0559

     occupation numbers 
     1.0000   1.0000   1.0000   1.0000   1.0000   1.0000   1.0000   1.0000
     1.0000   1.0000   1.0000   1.0000   1.0000   1.0000   1.0000   1.0000
     1.0000   1.0000   1.0000   1.0000   1.0000   1.0000   1.0000   1.0000
     1.0000   1.0000   1.0000   1.0000   1.0000   1.0000   1.0000   1.0000
     1.0000   1.0000   1.0000   1.0023   0.0001   0.0000   0.0000   0.0000
     0.0000   0.0000   0.0000

          k = 0.0625 0.2500 0.0000 (  4672 PWs)   bands (ev):

   -52.9616 -52.9574 -52.9558 -52.9515 -19.6115 -19.6095 -19.5320 -19.5167
   -19.5104 -19.4603 -19.4379 -19.4232 -19.3909 -19.3566 -19.3521 -19.3065
     2.0358   2.8301   2.9464   4.0680   8.6651   9.6797  10.0761  10.6447
    10.9117  11.6009  12.0386  12.1342  12.2697  12.9160  12.9690  13.5951
    13.5982  13.8239  14.4768  14.9068  15.6504  16.0271  16.1971  16.5841
    17.0082  17.5188  17.6142

     occupation numbers 
     1.0000   1.0000   1.0000   1.0000   1.0000   1.0000   1.0000   1.0000
     1.0000   1.0000   1.0000   1.0000   1.0000   1.0000   1.0000   1.0000
     1.0000   1.0000   1.0000   1.0000   1.0000   1.0000   1.0000   1.0000
     1.0000   1.0000   1.0000   1.0000   1.0000   1.0000   1.0000   1.0000
     1.0000   1.0000   1.0000   1.0454   0.0011   0.0000   0.0000   0.0000
     0.0000   0.0000   0.0000

          k = 0.0625 0.2500 0.0988 (  4670 PWs)   bands (ev):

   -52.9609 -52.9592 -52.9540 -52.9522 -19.6105 -19.6094 -19.5231 -19.5165
   -19.5091 -19.4860 -19.4350 -19.4291 -19.3618 -19.3560 -19.3504 -19.3206
     2.1390   2.4349   3.4155   3.8741   8.9026   9.4231  10.0754  10.3291
    11.2597  11.5518  12.1441  12.1779  12.4593  12.8905  12.9524  13.2800
    13.6004  13.6806  14.7755  14.9657  15.5632  15.6938  16.4316  16.7970
    17.0318  17.1064  17.6867

     occupation numbers 
     1.0000   1.0000   1.0000   1.0000   1.0000   1.0000   1.0000   1.0000
     1.0000   1.0000   1.0000   1.0000   1.0000   1.0000   1.0000   1.0000
     1.0000   1.0000   1.0000   1.0000   1.0000   1.0000   1.0000   1.0000
     1.0000   1.0000   1.0000   1.0000   1.0000   1.0000   1.0000   1.0000
     1.0000   1.0000   1.0071   1.0721   0.0083   0.0004   0.0000   0.0000
     0.0000   0.0000   0.0000

          k = 0.0625 0.3125 0.0000 (  4671 PWs)   bands (ev):

   -52.9602 -52.9569 -52.9544 -52.9511 -19.6447 -19.6419 -19.5231 -19.5133
   -19.5069 -19.4829 -19.4637 -19.4296 -19.3827 -19.3531 -19.3490 -19.3123
     2.4335   3.0961   3.2430   4.1193   8.7008   8.9737   9.7712   9.9532
    10.7199  11.7885  11.9418  12.0775  12.1155  12.8536  12.9372  13.6485
    13.7159  13.7788  14.5714  14.8934  15.6691  16.2420  16.2878  16.4574
    17.0147  17.4257  17.4654

     occupation numbers 
     1.0000   1.0000   1.0000   1.0000   1.0000   1.0000   1.0000   1.0000
     1.0000   1.0000   1.0000   1.0000   1.0000   1.0000   1.0000   1.0000
     1.0000   1.0000   1.0000   1.0000   1.0000   1.0000   1.0000   1.0000
     1.0000   1.0000   1.0000   1.0000   1.0000   1.0000   1.0000   1.0000
     1.0000   1.0000   1.0001   1.0394   0.0007   0.0000   0.0000   0.0000
     0.0000   0.0000   0.0000

          k = 0.0625 0.3125 0.0988 (  4674 PWs)   bands (ev):

   -52.9596 -52.9582 -52.9531 -52.9517 -19.6436 -19.6422 -19.5182 -19.5135
   -19.5057 -19.4936 -19.4580 -19.4438 -19.3599 -19.3528 -19.3476 -19.3245
     2.5235   2.7788   3.6102   3.9721   8.8448   9.0044   9.6093   9.6916
    11.0926  11.5729  11.9530  11.9784  12.6005  12.8926  12.8965  13.3549
    13.6118  13.6716  14.8380  14.9750  15.6164  15.8067  16.4625  16.7349
    17.0209  17.1034  17.5769

     occupation numbers 
     1.0000   1.0000   1.0000   1.0000   1.0000   1.0000   1.0000   1.0000
     1.0000   1.0000   1.0000   1.0000   1.0000   1.0000   1.0000   1.0000
     1.0000   1.0000   1.0000   1.0000   1.0000   1.0000   1.0000   1.0000
     1.0000   1.0000   1.0000   1.0000   1.0000   1.0000   1.0000   1.0000
     1.0000   1.0000   1.0195   1.0755   0.0026   0.0000   0.0000   0.0000
     0.0000   0.0000   0.0000

          k = 0.0625 0.3750 0.0000 (  4673 PWs)   bands (ev):

   -52.9589 -52.9567 -52.9532 -52.9509 -19.6722 -19.6699 -19.5197 -19.5125
   -19.5054 -19.5024 -19.4761 -19.4382 -19.3707 -19.3502 -19.3462 -19.3202
     2.8571   3.3736   3.4995   4.1155   8.3832   8.5276   9.4810   9.5119
    10.7298  11.6434  11.8030  12.0438  12.3337  12.8067  12.8694  13.5602
    13.6504  13.8422  14.6335  14.8586  15.6820  16.0827  16.5024  16.9281
    17.2454  17.2929  17.6444

     occupation numbers 
     1.0000   1.0000   1.0000   1.0000   1.0000   1.0000   1.0000   1.0000
     1.0000   1.0000   1.0000   1.0000   1.0000   1.0000   1.0000   1.0000
     1.0000   1.0000   1.0000   1.0000   1.0000   1.0000   1.0000   1.0000
     1.0000   1.0000   1.0000   1.0000   1.0000   1.0000   1.0000   1.0000
     1.0000   1.0000   1.0003   1.0259   0.0005   0.0000   0.0000   0.0000
     0.0000   0.0000   0.0000

          k = 0.0625 0.3750 0.0988 (  4681 PWs)   bands (ev):

   -52.9585 -52.9574 -52.9524 -52.9513 -19.6713 -19.6701 -19.5196 -19.5150
   -19.5057 -19.5049 -19.4667 -19.4488 -19.3572 -19.3503 -19.3449 -19.3294
     2.9296   3.1327   3.7641   4.0168   8.4848   8.5802   9.2867   9.3473
    11.0830  11.5389  11.8197  11.8876  12.7018  12.8371  12.8444  13.2844
    13.6317  13.7578  14.7803  14.9131  15.7191  15.8619  16.5522  16.8960
    17.1557  17.2297  17.7497

     occupation numbers 
     1.0000   1.0000   1.0000   1.0000   1.0000   1.0000   1.0000   1.0000
     1.0000   1.0000   1.0000   1.0000   1.0000   1.0000   1.0000   1.0000
     1.0000   1.0000   1.0000   1.0000   1.0000   1.0000   1.0000   1.0000
     1.0000   1.0000   1.0000   1.0000   1.0000   1.0000   1.0000   1.0000
     1.0000   1.0000   1.0077   1.0482   0.0002   0.0000   0.0000   0.0000
     0.0000   0.0000   0.0000

          k = 0.0625 0.4375 0.0000 (  4695 PWs)   bands (ev):

   -52.9579 -52.9567 -52.9521 -52.9509 -19.6902 -19.6890 -19.5254 -19.5226
   -19.5056 -19.5053 -19.4709 -19.4484 -19.3584 -19.3486 -19.3438 -19.3297
     3.2501   3.5934   3.6705   4.0367   8.0232   8.1987   9.2774   9.3287
    10.9063  11.4018  11.7493  11.9245  12.6964  12.7764  12.8047  13.3575
    13.6259  13.7416  14.7613  14.8645  15.6925  15.9129  16.7177  17.0583
    17.5105  17.5898  17.9821

     occupation numbers 
     1.0000   1.0000   1.0000   1.0000   1.0000   1.0000   1.0000   1.0000
     1.0000   1.0000   1.0000   1.0000   1.0000   1.0000   1.0000   1.0000
     1.0000   1.0000   1.0000   1.0000   1.0000   1.0000   1.0000   1.0000
     1.0000   1.0000   1.0000   1.0000   1.0000   1.0000   1.0000   1.0000
     1.0000   1.0000   1.0055   1.0280   0.0004   0.0000   0.0000   0.0000
     0.0000   0.0000   0.0000

          k = 0.0625 0.4375 0.0988 (  4688 PWs)   bands (ev):

   -52.9576 -52.9571 -52.9518 -52.9512 -19.6895 -19.6889 -19.5274 -19.5258
   -19.5056 -19.5054 -19.4630 -19.4519 -19.3536 -19.3491 -19.3424 -19.3349
     3.3001   3.4369   3.8316   3.9798   8.1236   8.2267   9.1272   9.1788
    11.1660  11.4048  11.7826  11.8869  12.7585  12.7896  12.8332  13.1303
    13.6693  13.7895  14.7787  14.8762  15.7602  15.8293  16.6370  16.8260
    17.5546  17.5827  17.9666

     occupation numbers 
     1.0000   1.0000   1.0000   1.0000   1.0000   1.0000   1.0000   1.0000
     1.0000   1.0000   1.0000   1.0000   1.0000   1.0000   1.0000   1.0000
     1.0000   1.0000   1.0000   1.0000   1.0000   1.0000   1.0000   1.0000
     1.0000   1.0000   1.0000   1.0000   1.0000   1.0000   1.0000   1.0000
     1.0000   1.0000   1.0075   1.0324   0.0001   0.0000   0.0000   0.0000
     0.0000   0.0000   0.0000

          k = 0.0625-0.5000 0.0000 (  4704 PWs)   bands (ev):

   -52.9571 -52.9571 -52.9513 -52.9513 -19.6961 -19.6961 -19.5284 -19.5284
   -19.5052 -19.5051 -19.4598 -19.4598 -19.3500 -19.3500 -19.3390 -19.3390
     3.5278   3.5278   3.8794   3.8794   7.9722   7.9723   9.2436   9.2436
    11.1530  11.1530  11.7976  11.7976  12.7700  12.7700  13.0643  13.0643
    13.6429  13.6429  14.8561  14.8561  15.7658  15.7658  16.8952  16.8952
    17.7625  17.7625  18.0373

     occupation numbers 
     1.0000   1.0000   1.0000   1.0000   1.0000   1.0000   1.0000   1.0000
     1.0000   1.0000   1.0000   1.0000   1.0000   1.0000   1.0000   1.0000
     1.0000   1.0000   1.0000   1.0000   1.0000   1.0000   1.0000   1.0000
     1.0000   1.0000   1.0000   1.0000   1.0000   1.0000   1.0000   1.0000
     1.0000   1.0000   1.0251   1.0251   0.0000   0.0000   0.0000   0.0000
     0.0000   0.0000   0.0000

          k = 0.0625-0.5000 0.0988 (  4698 PWs)   bands (ev):

   -52.9571 -52.9571 -52.9513 -52.9513 -19.6957 -19.6957 -19.5310 -19.5310
   -19.5051 -19.5051 -19.4568 -19.4568 -19.3503 -19.3503 -19.3395 -19.3395
     3.5302   3.5302   3.8755   3.8755   8.0358   8.0359   9.1010   9.1010
    11.2766  11.2766  11.8334  11.8334  12.7617  12.7617  12.9615  12.9615
    13.7333  13.7333  14.8349  14.8349  15.7886  15.7886  16.7178  16.7178
    17.7860  17.7860  17.9643

     occupation numbers 
     1.0000   1.0000   1.0000   1.0000   1.0000   1.0000   1.0000   1.0000
     1.0000   1.0000   1.0000   1.0000   1.0000   1.0000   1.0000   1.0000
     1.0000   1.0000   1.0000   1.0000   1.0000   1.0000   1.0000   1.0000
     1.0000   1.0000   1.0000   1.0000   1.0000   1.0000   1.0000   1.0000
     1.0000   1.0000   1.0187   1.0187   0.0000   0.0000   0.0000   0.0000
     0.0000   0.0000   0.0000

          k = 0.1250 0.1250 0.0000 (  4672 PWs)   bands (ev):

   -52.9632 -52.9577 -52.9577 -52.9522 -19.5635 -19.5447 -19.5447 -19.5392
   -19.5246 -19.4311 -19.4310 -19.3837 -19.3782 -19.3707 -19.3706 -19.3013
     1.5968   2.5557   2.5558   3.9606   8.5207  10.6660  10.6660  11.3394
    11.5177  11.5177  12.1597  12.2074  12.3815  12.6337  12.6337  13.4025
    14.0530  14.1056  14.1057  14.2248  15.6753  16.1347  16.9448  16.9448
    17.3538  17.3538  17.8647

     occupation numbers 
     1.0000   1.0000   1.0000   1.0000   1.0000   1.0000   1.0000   1.0000
     1.0000   1.0000   1.0000   1.0000   1.0000   1.0000   1.0000   1.0000
     1.0000   1.0000   1.0000   1.0000   1.0000   1.0000   1.0000   1.0000
     1.0000   1.0000   1.0000   1.0000   1.0000   1.0000   1.0000   1.0000
     1.0000   1.0000   1.0000   1.0000   0.0006   0.0000   0.0000   0.0000
     0.0000   0.0000   0.0000

          k = 0.1250 0.1250 0.0988 (  4665 PWs)   bands (ev):

   -52.9624 -52.9604 -52.9550 -52.9529 -19.5543 -19.5460 -19.5430 -19.5404
   -19.5191 -19.4866 -19.3878 -19.3832 -19.3768 -19.3739 -19.3550 -19.3171
     1.7123   2.0457   3.1631   3.7172   8.8588   9.6828  11.2425  11.3047
    11.7196  11.7611  12.0705  12.1328  12.3439  12.4545  12.8421  13.1621
    14.0301  14.0461  14.2615  14.3043  15.9153  16.1760  16.4614  16.5058
    17.6543  17.8218  17.8658

     occupation numbers 
     1.0000   1.0000   1.0000   1.0000   1.0000   1.0000   1.0000   1.0000
     1.0000   1.0000   1.0000   1.0000   1.0000   1.0000   1.0000   1.0000
     1.0000   1.0000   1.0000   1.0000   1.0000   1.0000   1.0000   1.0000
     1.0000   1.0000   1.0000   1.0000   1.0000   1.0000   1.0000   1.0000
     1.0000   1.0000   1.0000   1.0000   0.0000   0.0000   0.0000   0.0000
     0.0000   0.0000   0.0000

          k = 0.1250 0.1875 0.0000 (  4686 PWs)   bands (ev):

   -52.9621 -52.9572 -52.9567 -52.9517 -19.5765 -19.5748 -19.5455 -19.5414
   -19.5220 -19.4388 -19.4250 -19.4070 -19.3854 -19.3774 -19.3680 -19.3031
     1.8421   2.7229   2.7647   4.0301   8.6877  10.4337  10.4968  10.9679
    11.2250  11.4548  11.5162  12.0533  12.3928  12.4178  12.6752  13.5225
    13.8585  14.1565  14.3444  14.4018  15.6086  15.8835  16.6861  17.0487
    17.3790  17.5309  17.6225

     occupation numbers 
     1.0000   1.0000   1.0000   1.0000   1.0000   1.0000   1.0000   1.0000
     1.0000   1.0000   1.0000   1.0000   1.0000   1.0000   1.0000   1.0000
     1.0000   1.0000   1.0000   1.0000   1.0000   1.0000   1.0000   1.0000
     1.0000   1.0000   1.0000   1.0000   1.0000   1.0000   1.0000   1.0000
     1.0000   1.0000   1.0000   1.0000   0.0031   0.0000   0.0000   0.0000
     0.0000   0.0000   0.0000

          k = 0.1250 0.1875 0.0988 (  4678 PWs)   bands (ev):

   -52.9615 -52.9596 -52.9543 -52.9524 -19.5747 -19.5742 -19.5428 -19.5412
   -19.5145 -19.4819 -19.4057 -19.4054 -19.3764 -19.3762 -19.3539 -19.3178
     1.9511   2.2650   3.3080   3.8128   8.9818   9.6963  10.7636  10.8880
    11.4509  11.5084  11.7591  12.0224  12.2953  12.3107  12.8216  13.2091
    13.9313  14.0675  14.4409  14.5277  15.7326  16.0976  16.1820  16.7250
    17.4453  17.5711  18.1578

     occupation numbers 
     1.0000   1.0000   1.0000   1.0000   1.0000   1.0000   1.0000   1.0000
     1.0000   1.0000   1.0000   1.0000   1.0000   1.0000   1.0000   1.0000
     1.0000   1.0000   1.0000   1.0000   1.0000   1.0000   1.0000   1.0000
     1.0000   1.0000   1.0000   1.0000   1.0000   1.0000   1.0000   1.0000
     1.0000   1.0000   1.0000   1.0000   0.0001   0.0000   0.0000   0.0000
     0.0000   0.0000   0.0000

          k = 0.1250 0.2500 0.0000 (  4679 PWs)   bands (ev):

   -52.9609 -52.9567 -52.9554 -52.9512 -19.6088 -19.6068 -19.5408 -19.5376
   -19.5156 -19.4556 -19.4356 -19.4230 -19.3910 -19.3738 -19.3645 -19.3066
     2.1657   2.9398   3.0266   4.0992   8.8421   9.7882  10.1992  10.6040
    10.7545  11.3283  11.6106  11.8391  12.2115  12.4964  12.6869  13.6330
    13.7606  14.0826  14.5339  14.5535  15.6085  15.9107  16.5780  16.8510
    17.2891  17.3831  18.0680

     occupation numbers 
     1.0000   1.0000   1.0000   1.0000   1.0000   1.0000   1.0000   1.0000
     1.0000   1.0000   1.0000   1.0000   1.0000   1.0000   1.0000   1.0000
     1.0000   1.0000   1.0000   1.0000   1.0000   1.0000   1.0000   1.0000
     1.0000   1.0000   1.0000   1.0000   1.0000   1.0000   1.0000   1.0000
     1.0000   1.0000   1.0000   1.0000   0.0031   0.0000   0.0000   0.0000
     0.0000   0.0000   0.0000

          k = 0.1250 0.2500 0.0988 (  4676 PWs)   bands (ev):

   -52.9602 -52.9585 -52.9536 -52.9519 -19.6079 -19.6068 -19.5386 -19.5374
   -19.5079 -19.4805 -19.4330 -19.4277 -19.3744 -19.3732 -19.3524 -19.3200
     2.2651   2.5500   3.4845   3.9179   9.0662   9.5646  10.1206  10.3120
    11.1038  11.3809  11.7142  11.8077  12.2532  12.4360  12.8144  13.2640
    13.8296  13.9852  14.6306  14.7076  15.6469  16.0607  16.1790  16.8195
    17.2962  17.3649  18.1305

     occupation numbers 
     1.0000   1.0000   1.0000   1.0000   1.0000   1.0000   1.0000   1.0000
     1.0000   1.0000   1.0000   1.0000   1.0000   1.0000   1.0000   1.0000
     1.0000   1.0000   1.0000   1.0000   1.0000   1.0000   1.0000   1.0000
     1.0000   1.0000   1.0000   1.0000   1.0000   1.0000   1.0000   1.0000
     1.0000   1.0000   1.0003   1.0019   0.0012   0.0000   0.0000   0.0000
     0.0000   0.0000   0.0000

          k = 0.1250 0.3125 0.0000 (  4681 PWs)   bands (ev):

   -52.9595 -52.9562 -52.9541 -52.9508 -19.6418 -19.6392 -19.5352 -19.5339
   -19.5088 -19.4788 -19.4609 -19.4270 -19.3854 -19.3703 -19.3605 -19.3122
     2.5455   3.1893   3.3050   4.1432   8.8549   9.0948   9.8919  10.0755
    10.4936  11.3787  11.6419  11.7659  12.1291  12.5810  12.6840  13.6452
    13.7360  13.9705  14.6058  14.6137  15.6350  16.2028  16.6388  16.8056
    17.2927  17.3274  17.8594

     occupation numbers 
     1.0000   1.0000   1.0000   1.0000   1.0000   1.0000   1.0000   1.0000
     1.0000   1.0000   1.0000   1.0000   1.0000   1.0000   1.0000   1.0000
     1.0000   1.0000   1.0000   1.0000   1.0000   1.0000   1.0000   1.0000
     1.0000   1.0000   1.0000   1.0000   1.0000   1.0000   1.0000   1.0000
     1.0000   1.0000   1.0002   1.0002   0.0016   0.0000   0.0000   0.0000
     0.0000   0.0000   0.0000

          k = 0.1250 0.3125 0.0988 (  4673 PWs)   bands (ev):

   -52.9590 -52.9575 -52.9528 -52.9513 -19.6408 -19.6395 -19.5344 -19.5338
   -19.5039 -19.4888 -19.4553 -19.4413 -19.3720 -19.3699 -19.3504 -19.3237
     2.6317   2.8765   3.6635   4.0054   8.9971   9.1401   9.6879   9.7478
    10.9483  11.4755  11.5200  11.6097  12.3675  12.5522  12.7981  13.2766
    13.7640  13.8990  14.6781  14.6998  15.8005  16.1718  16.3090  16.8000
    17.2997  17.3565  17.9556

     occupation numbers 
     1.0000   1.0000   1.0000   1.0000   1.0000   1.0000   1.0000   1.0000
     1.0000   1.0000   1.0000   1.0000   1.0000   1.0000   1.0000   1.0000
     1.0000   1.0000   1.0000   1.0000   1.0000   1.0000   1.0000   1.0000
     1.0000   1.0000   1.0000   1.0000   1.0000   1.0000   1.0000   1.0000
     1.0000   1.0000   1.0010   1.0016   0.0000   0.0000   0.0000   0.0000
     0.0000   0.0000   0.0000

          k = 0.1250 0.3750 0.0000 (  4690 PWs)   bands (ev):

   -52.9583 -52.9560 -52.9528 -52.9505 -19.6693 -19.6670 -19.5315 -19.5314
   -19.5090 -19.5002 -19.4718 -19.4343 -19.3763 -19.3673 -19.3557 -19.3197
     2.9466   3.4487   3.5431   4.1373   8.5195   8.6281   9.6291   9.6492
    10.5610  11.2324  11.5220  11.9260  12.2357  12.6239  12.6743  13.4553
    13.7286  13.9472  14.5908  14.6056  15.7248  16.5517  16.5895  17.0593
    17.3019  17.4941  17.9147

     occupation numbers 
     1.0000   1.0000   1.0000   1.0000   1.0000   1.0000   1.0000   1.0000
     1.0000   1.0000   1.0000   1.0000   1.0000   1.0000   1.0000   1.0000
     1.0000   1.0000   1.0000   1.0000   1.0000   1.0000   1.0000   1.0000
     1.0000   1.0000   1.0000   1.0000   1.0000   1.0000   1.0000   1.0000
     1.0000   1.0000   1.0001   1.0002   0.0002   0.0000   0.0000   0.0000
     0.0000   0.0000   0.0000

          k = 0.1250 0.3750 0.0988 (  4692 PWs)   bands (ev):

   -52.9578 -52.9568 -52.9520 -52.9510 -19.6684 -19.6672 -19.5318 -19.5315
   -19.5090 -19.5045 -19.4626 -19.4452 -19.3697 -19.3673 -19.3479 -19.3286
     3.0157   3.2096   3.8043   4.0442   8.6209   8.6969   9.3922   9.4374
[...]
     1.0000   1.0000   1.0000   1.0000   1.0000   1.0000   1.0000   1.0000
     1.0000   1.0000   1.0000   1.0000   0.0000   0.0000   0.0000   0.0000
     0.0000   0.0000   0.0000

          k = 0.4375 0.3125 0.0000 (  4702 PWs)   bands (ev):

   -52.9536 -52.9525 -52.9503 -52.9492 -19.6716 -19.6707 -19.6201 -19.6192
   -19.5036 -19.5021 -19.4636 -19.4598 -19.4177 -19.3993 -19.3608 -19.3383
     3.6622   3.8486   3.9487   4.1521   8.8976   8.9533   9.6997   9.9938
    10.0058  10.4916  10.9643  10.9664  11.8892  12.2015  12.3192  12.3556
    13.9220  14.0566  14.2320  14.4223  16.7557  17.1436  17.6755  17.7968
    17.8778  17.9015  18.1749

     occupation numbers 
     1.0000   1.0000   1.0000   1.0000   1.0000   1.0000   1.0000   1.0000
     1.0000   1.0000   1.0000   1.0000   1.0000   1.0000   1.0000   1.0000
     1.0000   1.0000   1.0000   1.0000   1.0000   1.0000   1.0000   1.0000
     1.0000   1.0000   1.0000   1.0000   1.0000   1.0000   1.0000   1.0000
     1.0000   1.0000   1.0000   1.0000   0.0000   0.0000   0.0000   0.0000
     0.0000   0.0000   0.0000

          k = 0.4375 0.3125-0.0988 (  4706 PWs)   bands (ev):

   -52.9534 -52.9528 -52.9500 -52.9494 -19.6713 -19.6709 -19.6198 -19.6194
   -19.5042 -19.5033 -19.4622 -19.4603 -19.4137 -19.4047 -19.3541 -19.3431
     3.6912   3.7705   4.0311   4.1189   8.9930   9.0264   9.5063   9.5417
    10.4373  10.5766  11.0152  11.0254  11.8860  12.0422  12.3399  12.3441
    13.9339  14.0086  14.2887  14.3743  16.7877  16.9523  17.7144  17.7305
    17.9409  18.1569  18.3441

     occupation numbers 
     1.0000   1.0000   1.0000   1.0000   1.0000   1.0000   1.0000   1.0000
     1.0000   1.0000   1.0000   1.0000   1.0000   1.0000   1.0000   1.0000
     1.0000   1.0000   1.0000   1.0000   1.0000   1.0000   1.0000   1.0000
     1.0000   1.0000   1.0000   1.0000   1.0000   1.0000   1.0000   1.0000
     1.0000   1.0000   1.0000   1.0000   0.0000   0.0000   0.0000   0.0000
     0.0000   0.0000   0.0000

          k =-0.5000 0.3125 0.0000 (  4692 PWs)   bands (ev):

   -52.9529 -52.9528 -52.9496 -52.9496 -19.6773 -19.6773 -19.6187 -19.6187
   -19.5078 -19.5078 -19.4605 -19.4605 -19.4084 -19.4084 -19.3489 -19.3489
     3.8041   3.8042   4.0656   4.0657   8.8455   8.8455   9.8109   9.8109
    10.2189  10.2189  11.0147  11.0148  12.1354  12.1354  12.2662  12.2662
    13.9709  13.9709  14.3470  14.3471  16.9935  16.9935  17.8052  17.8052
    18.0507  18.0508  18.3483

     occupation numbers 
     1.0000   1.0000   1.0000   1.0000   1.0000   1.0000   1.0000   1.0000
     1.0000   1.0000   1.0000   1.0000   1.0000   1.0000   1.0000   1.0000
     1.0000   1.0000   1.0000   1.0000   1.0000   1.0000   1.0000   1.0000
     1.0000   1.0000   1.0000   1.0000   1.0000   1.0000   1.0000   1.0000
     1.0000   1.0000   1.0000   1.0000   0.0000   0.0000   0.0000   0.0000
     0.0000   0.0000   0.0000

          k =-0.5000 0.3125-0.0988 (  4708 PWs)   bands (ev):

   -52.9529 -52.9528 -52.9496 -52.9496 -19.6774 -19.6773 -19.6186 -19.6186
   -19.5087 -19.5087 -19.4601 -19.4601 -19.4077 -19.4077 -19.3495 -19.3495
     3.8040   3.8041   4.0656   4.0656   8.9397   8.9397   9.4991   9.4991
    10.4696  10.4696  11.0533  11.0533  12.1129  12.1129  12.2208  12.2208
    13.9691  13.9691  14.3212  14.3212  16.9236  16.9236  17.9676  17.9676
    18.0724  18.0725  18.4323

     occupation numbers 
     1.0000   1.0000   1.0000   1.0000   1.0000   1.0000   1.0000   1.0000
     1.0000   1.0000   1.0000   1.0000   1.0000   1.0000   1.0000   1.0000
     1.0000   1.0000   1.0000   1.0000   1.0000   1.0000   1.0000   1.0000
     1.0000   1.0000   1.0000   1.0000   1.0000   1.0000   1.0000   1.0000
     1.0000   1.0000   1.0000   1.0000   0.0000   0.0000   0.0000   0.0000
     0.0000   0.0000   0.0000

          k = 0.4375 0.3750 0.0000 (  4699 PWs)   bands (ev):

   -52.9523 -52.9512 -52.9501 -52.9489 -19.6669 -19.6664 -19.6463 -19.6457
   -19.4991 -19.4979 -19.4816 -19.4805 -19.4104 -19.3890 -19.3680 -19.3454
     3.7861   3.9280   3.9968   4.1496   9.1320   9.2603   9.6543   9.7498
    10.1498  10.3429  10.6171  10.9170  11.7826  12.1979  12.2281  12.2298
    13.9554  13.9832  14.2037  14.5118  17.2014  17.4942  17.8265  17.9260
    17.9294  18.0293  18.2948

     occupation numbers 
     1.0000   1.0000   1.0000   1.0000   1.0000   1.0000   1.0000   1.0000
     1.0000   1.0000   1.0000   1.0000   1.0000   1.0000   1.0000   1.0000
     1.0000   1.0000   1.0000   1.0000   1.0000   1.0000   1.0000   1.0000
     1.0000   1.0000   1.0000   1.0000   1.0000   1.0000   1.0000   1.0000
     1.0000   1.0000   1.0000   1.0000   0.0000   0.0000   0.0000   0.0000
     0.0000   0.0000   0.0000

          k = 0.4375 0.3750-0.0988 (  4704 PWs)   bands (ev):

   -52.9521 -52.9516 -52.9497 -52.9491 -19.6667 -19.6665 -19.6462 -19.6458
   -19.4993 -19.4987 -19.4812 -19.4806 -19.4061 -19.3962 -19.3602 -19.3497
     3.8077   3.8673   4.0604   4.1255   9.2048   9.2847   9.5592   9.5665
    10.3260  10.3872  10.6804  10.8463  11.8595  12.0596  12.2334  12.2453
    13.9518  13.9610  14.2927  14.4415  17.2308  17.3600  17.7935  17.8073
    18.0703  18.2644  18.4143

     occupation numbers 
     1.0000   1.0000   1.0000   1.0000   1.0000   1.0000   1.0000   1.0000
     1.0000   1.0000   1.0000   1.0000   1.0000   1.0000   1.0000   1.0000
     1.0000   1.0000   1.0000   1.0000   1.0000   1.0000   1.0000   1.0000
     1.0000   1.0000   1.0000   1.0000   1.0000   1.0000   1.0000   1.0000
     1.0000   1.0000   1.0000   1.0000   0.0000   0.0000   0.0000   0.0000
     0.0000   0.0000   0.0000

          k =-0.5000 0.3750 0.0000 (  4708 PWs)   bands (ev):

   -52.9516 -52.9516 -52.9494 -52.9493 -19.6728 -19.6728 -19.6450 -19.6450
   -19.5036 -19.5036 -19.4801 -19.4801 -19.3994 -19.3993 -19.3562 -19.3562
     3.8899   3.8899   4.0833   4.0833   9.1476   9.1476   9.8387   9.8387
    10.0817  10.0817  10.7528  10.7529  12.0559  12.0559  12.1997  12.1997
    13.9512  13.9513  14.3865  14.3865  17.4007  17.4007  17.9503  17.9503
    18.1477  18.1477  18.5308

     occupation numbers 
     1.0000   1.0000   1.0000   1.0000   1.0000   1.0000   1.0000   1.0000
     1.0000   1.0000   1.0000   1.0000   1.0000   1.0000   1.0000   1.0000
     1.0000   1.0000   1.0000   1.0000   1.0000   1.0000   1.0000   1.0000
     1.0000   1.0000   1.0000   1.0000   1.0000   1.0000   1.0000   1.0000
     1.0000   1.0000   1.0000   1.0000   0.0000   0.0000   0.0000   0.0000
     0.0000   0.0000   0.0000

          k =-0.5000 0.3750-0.0988 (  4706 PWs)   bands (ev):

   -52.9516 -52.9516 -52.9494 -52.9493 -19.6728 -19.6727 -19.6450 -19.6450
   -19.5040 -19.5040 -19.4800 -19.4799 -19.3988 -19.3987 -19.3565 -19.3565
     3.8894   3.8895   4.0839   4.0839   9.2190   9.2191   9.5918   9.5918
    10.2925  10.2925  10.7431  10.7431  12.0705  12.0705  12.1596  12.1597
    13.9588  13.9589  14.3643  14.3643  17.3757  17.3757  18.0527  18.0527
    18.1585  18.1586  18.5374

     occupation numbers 
     1.0000   1.0000   1.0000   1.0000   1.0000   1.0000   1.0000   1.0000
     1.0000   1.0000   1.0000   1.0000   1.0000   1.0000   1.0000   1.0000
     1.0000   1.0000   1.0000   1.0000   1.0000   1.0000   1.0000   1.0000
     1.0000   1.0000   1.0000   1.0000   1.0000   1.0000   1.0000   1.0000
     1.0000   1.0000   1.0000   1.0000   0.0000   0.0000   0.0000   0.0000
     0.0000   0.0000   0.0000

          k =-0.5000 0.4375 0.0000 (  4710 PWs)   bands (ev):

   -52.9506 -52.9505 -52.9494 -52.9494 -19.6698 -19.6697 -19.6625 -19.6625
   -19.5007 -19.5007 -19.4945 -19.4945 -19.3876 -19.3876 -19.3652 -19.3652
     3.9679   3.9680   4.0713   4.0713   9.4438   9.4438   9.8042   9.8043
    10.0345  10.0345  10.4374  10.4374  12.0757  12.0757  12.1687  12.1688
    14.0273  14.0273  14.3183  14.3183  17.8611  17.8611  18.1967  18.1967
    18.2592  18.2592  18.5951

     occupation numbers 
     1.0000   1.0000   1.0000   1.0000   1.0000   1.0000   1.0000   1.0000
     1.0000   1.0000   1.0000   1.0000   1.0000   1.0000   1.0000   1.0000
     1.0000   1.0000   1.0000   1.0000   1.0000   1.0000   1.0000   1.0000
     1.0000   1.0000   1.0000   1.0000   1.0000   1.0000   1.0000   1.0000
     1.0000   1.0000   1.0000   1.0000   0.0000   0.0000   0.0000   0.0000
     0.0000   0.0000   0.0000

          k =-0.5000 0.4375-0.0988 (  4698 PWs)   bands (ev):

   -52.9506 -52.9505 -52.9494 -52.9494 -19.6697 -19.6697 -19.6625 -19.6625
   -19.5008 -19.5008 -19.4944 -19.4944 -19.3873 -19.3873 -19.3654 -19.3653
     3.9676   3.9676   4.0718   4.0718   9.4739   9.4739   9.6827   9.6827
    10.1538  10.1539  10.4234  10.4234  12.0827  12.0827  12.1444  12.1444
    14.0395  14.0395  14.3044  14.3044  17.8645  17.8645  18.1958  18.1958
    18.3102  18.3103  18.5734

     occupation numbers 
     1.0000   1.0000   1.0000   1.0000   1.0000   1.0000   1.0000   1.0000
     1.0000   1.0000   1.0000   1.0000   1.0000   1.0000   1.0000   1.0000
     1.0000   1.0000   1.0000   1.0000   1.0000   1.0000   1.0000   1.0000
     1.0000   1.0000   1.0000   1.0000   1.0000   1.0000   1.0000   1.0000
     1.0000   1.0000   1.0000   1.0000   0.0000   0.0000   0.0000   0.0000
     0.0000   0.0000   0.0000

     the Fermi energy is    15.2976 ev

!    total energy              =    -640.02823843 Ry
     Harris-Foulkes estimate   =    -640.02823843 Ry
     estimated scf accuracy    <          4.5E-10 Ry

     The total energy is the sum of the following terms:

     one-electron contribution =     -90.62090723 Ry
     hartree contribution      =      78.72140624 Ry
     xc contribution           =    -205.41389449 Ry
     ewald contribution        =    -422.71515713 Ry
     smearing contrib. (-TS)   =       0.00031418 Ry

     convergence has been achieved in  13 iterations

     Forces acting on atoms (Ry/au):


     negative rho (up, down):  3.998E-01 0.000E+00
     atom    1 type  2   force =     0.00000000    0.00000000   -0.00154975
     atom    2 type  2   force =     0.00000000    0.00000000   -0.00154701
     atom    3 type  2   force =     0.00000000    0.00000000   -0.00154918
     atom    4 type  2   force =     0.00000000    0.00000000   -0.00155097
     atom    5 type  1   force =     0.00000000    0.00000000    0.00154938
     atom    6 type  1   force =     0.00000000    0.00000000    0.00154992
     atom    7 type  1   force =     0.00000000    0.00000000    0.00155307
     atom    8 type  1   force =     0.00000000    0.00000000    0.00154454
     The non-local contrib.  to forces
     atom    1 type  2   force =     0.00000000    0.00000000    0.01197551
     atom    2 type  2   force =     0.00000000    0.00000000    0.01199077
     atom    3 type  2   force =     0.00000000    0.00000000    0.01197856
     atom    4 type  2   force =     0.00000000    0.00000000    0.01198383
     atom    5 type  1   force =     0.00000000    0.00000000   -0.00934896
     atom    6 type  1   force =     0.00000000    0.00000000   -0.00934523
     atom    7 type  1   force =     0.00000000    0.00000000   -0.00934342
     atom    8 type  1   force =     0.00000000    0.00000000   -0.00934959
     The ionic contribution  to forces
     atom    1 type  2   force =     0.00000000   -0.00000000   -0.16080511
     atom    2 type  2   force =    -0.00000000   -0.00000000   -0.16142812
     atom    3 type  2   force =    -0.00000000    0.00000000   -0.16129045
     atom    4 type  2   force =     0.00000000    0.00000000   -0.16167338
     atom    5 type  1   force =    -0.00000000    0.00000000    0.16146928
     atom    6 type  1   force =     0.00000000   -0.00000000    0.16123891
     atom    7 type  1   force =     0.00000000   -0.00000000    0.16130936
     atom    8 type  1   force =    -0.00000000   -0.00000000    0.16117951
     The local contribution  to forces
     atom    1 type  2   force =     0.00000000    0.00000000    0.14640162
     atom    2 type  2   force =    -0.00000000   -0.00000000    0.14708511
     atom    3 type  2   force =     0.00000000   -0.00000000    0.14693128
     atom    4 type  2   force =     0.00000000    0.00000000    0.14733348
     atom    5 type  1   force =    -0.00000000   -0.00000000   -0.14984751
     atom    6 type  1   force =     0.00000000    0.00000000   -0.14958051
     atom    7 type  1   force =    -0.00000000   -0.00000000   -0.14966519
     atom    8 type  1   force =    -0.00000000    0.00000000   -0.14953629
     The core correction contribution to forces
     atom    1 type  2   force =     0.00000000    0.00000000    0.00083194
     atom    2 type  2   force =     0.00000000   -0.00000000    0.00083262
     atom    3 type  2   force =     0.00000000   -0.00000000    0.00083193
     atom    4 type  2   force =     0.00000000   -0.00000000    0.00083193
     atom    5 type  1   force =    -0.00000000   -0.00000000   -0.00074602
     atom    6 type  1   force =    -0.00000000    0.00000000   -0.00074480
     atom    7 type  1   force =     0.00000000    0.00000000   -0.00074638
     atom    8 type  1   force =     0.00000000    0.00000000   -0.00074389
     The Hubbard contrib.    to forces
     atom    1 type  2   force =     0.00000000    0.00000000    0.00000000
     atom    2 type  2   force =     0.00000000    0.00000000    0.00000000
     atom    3 type  2   force =     0.00000000    0.00000000    0.00000000
     atom    4 type  2   force =     0.00000000    0.00000000    0.00000000
     atom    5 type  1   force =     0.00000000    0.00000000    0.00000000
     atom    6 type  1   force =     0.00000000    0.00000000    0.00000000
     atom    7 type  1   force =     0.00000000    0.00000000    0.00000000
     atom    8 type  1   force =     0.00000000    0.00000000    0.00000000
     The SCF correction term to forces
     atom    1 type  2   force =     0.00000000   -0.00000000    0.00004630
     atom    2 type  2   force =     0.00000000    0.00000000   -0.00002740
     atom    3 type  2   force =     0.00000000   -0.00000000   -0.00000049
     atom    4 type  2   force =     0.00000000    0.00000000   -0.00002683
     atom    5 type  1   force =    -0.00000000    0.00000000    0.00002260
     atom    6 type  1   force =    -0.00000000   -0.00000000   -0.00001844
     atom    7 type  1   force =    -0.00000000    0.00000000   -0.00000130
     atom    8 type  1   force =    -0.00000000   -0.00000000   -0.00000520

     Total force =     0.004382     Total SCF correction =     0.000067


     entering subroutine stress ...


     negative rho (up, down):  3.998E-01 0.000E+00
          total   stress  (Ry/bohr**3)                   (kbar)     P=   -0.79
  -0.00000908   0.00000000   0.00000000         -1.34      0.00      0.00
   0.00000000  -0.00000910   0.00000000          0.00     -1.34      0.00
   0.00000000   0.00000000   0.00000214          0.00      0.00      0.32

     kinetic stress (kbar)  19366.15      0.00      0.00
                                0.00  19366.15      0.00
                                0.00      0.00  19593.31

     local   stress (kbar)  15709.85     -0.00      0.00
                               -0.00  15709.87     -0.00
                                0.00     -0.00  16009.76

     nonloc. stress (kbar) -10980.05      0.00      0.00
                                0.00 -10980.05      0.00
                                0.00      0.00 -11008.63

     hartree stress (kbar)   4121.86     -0.00      0.00
                               -0.00   4121.87     -0.00
                                0.00     -0.00   4345.93

     exc-cor stress (kbar)  16382.64      0.00     -0.00
                                0.00  16382.64      0.00
                               -0.00      0.00  16382.25

     corecor stress (kbar) -22309.76     -0.00      0.00
                               -0.00 -22309.76     -0.00
                                0.00     -0.00 -22302.91

     ewald   stress (kbar) -22292.03      0.00     -0.00
                                0.00 -22292.05      0.00
                               -0.00      0.00 -23019.40

     hubbard stress (kbar)      0.00      0.00      0.00
                                0.00      0.00      0.00
                                0.00      0.00      0.00

     london  stress (kbar)      0.00      0.00      0.00
                                0.00      0.00      0.00
                                0.00      0.00      0.00

     XDM     stress (kbar)      0.00      0.00      0.00
                                0.00      0.00      0.00
                                0.00      0.00      0.00

     dft-nl  stress (kbar)      0.00      0.00      0.00
                                0.00      0.00      0.00
                                0.00      0.00      0.00



     Writing output data file aiida.save

     init_run     :     64.58s CPU     82.19s WALL (       1 calls)
     electrons    :   1327.88s CPU  30785.80s WALL (       1 calls)
     forces       :     13.58s CPU     15.35s WALL (       1 calls)
     stress       :     11.44s CPU    201.34s WALL (       1 calls)

     Called by init_run:
     wfcinit      :     60.47s CPU     75.59s WALL (       1 calls)
     potinit      :      0.77s CPU      1.20s WALL (       1 calls)

     Called by electrons:
     c_bands      :   1095.91s CPU  30443.17s WALL (      14 calls)
     sum_band     :    220.52s CPU    320.40s WALL (      14 calls)
     v_of_rho     :      3.25s CPU      5.56s WALL (      14 calls)
     v_h          :      0.12s CPU      0.31s WALL (      14 calls)
     v_xc         :      3.34s CPU      5.87s WALL (      16 calls)
     newd         :      8.59s CPU     16.81s WALL (      14 calls)
     mix_rho      :      0.23s CPU      0.89s WALL (      14 calls)

     Called by c_bands:
     init_us_2    :     20.95s CPU     40.03s WALL (    5022 calls)
     cegterg      :    999.77s CPU  30309.35s WALL (    2268 calls)

     Called by sum_band:
     sum_band:bec :      0.08s CPU      0.29s WALL (    2268 calls)
     addusdens    :     26.84s CPU     29.18s WALL (      14 calls)

     Called by *egterg:
     h_psi        :    820.20s CPU  29826.83s WALL (    8739 calls)
     s_psi        :     81.45s CPU     74.65s WALL (    8739 calls)
     g_psi        :      1.77s CPU      4.88s WALL (    6309 calls)
     cdiaghg      :     15.69s CPU    246.63s WALL (    8415 calls)
     cegterg:over :     54.44s CPU     63.98s WALL (    6309 calls)
     cegterg:upda :     25.36s CPU     52.56s WALL (    6309 calls)
     cegterg:last :     17.20s CPU     20.79s WALL (    2268 calls)

     Called by h_psi:
     h_psi:vloc   :    639.91s CPU  15100.31s WALL (    8739 calls)
     h_psi:vnl    :    177.38s CPU  14720.30s WALL (    8739 calls)
     add_vuspsi   :     85.47s CPU     76.72s WALL (    8739 calls)

     General routines
     calbec       :    135.59s CPU  14675.40s WALL (   11817 calls)
     fft          :      1.75s CPU      3.48s WALL (     249 calls)
     ffts         :      0.03s CPU      0.11s WALL (      28 calls)
     fftw         :    636.19s CPU  15116.07s WALL (  577704 calls)
     interpolate  :      0.22s CPU      0.62s WALL (      28 calls)
     davcio       :      0.00s CPU      1.93s WALL (     162 calls)

     Parallel routines
     fft_scatter  :     47.56s CPU     92.33s WALL (  577981 calls)

     PWSCF        :     0h23m CPU        8h38m WALL


   This run was terminated on:  11:53:58  23Nov2024            

=------------------------------------------------------------------------------=
   JOB DONE.
=------------------------------------------------------------------------------=
