
     Program PWSCF v.5.2.1 (svn rev. 11758) starts on 21Oct2024 at 19:24: 3 

     This program is part of the open-source Quantum ESPRESSO suite
     for quantum simulation of materials; please cite
         "P. Giannozzi et al., J. Phys.:Condens. Matter 21 395502 (2009);
          URL http://www.quantum-espresso.org", 
     in publications or presentations arising from this work. More details at
     http://www.quantum-espresso.org/quote

     Parallel version (MPI), running on     1 processors
     Waiting for input...
     Reading input from standard input

     Current dimensions of program PWSCF are:
     Max number of different atomic species (ntypx) = 10
     Max number of k-points (npk) =  40000
     Max angular momentum in pseudopotentials (lmaxx) =  3

     Subspace diagonalization in iterative solution of the eigenvalue problem:
     a serial algorithm will be used

     Found symmetry operation: I + (  0.5000 -0.5000 -0.5000)
     This is a supercell, fractional translations are disabled

     G-vector sticks info
     --------------------
     sticks:   dense  smooth     PW     G-vecs:    dense   smooth      PW
     Sum        1229     613    185               109977    38875    6509



     bravais-lattice index     =            0
     lattice parameter (alat)  =       6.5566  a.u.
     unit-cell volume          =     953.3184 (a.u.)^3
     number of atoms/cell      =            8
     number of atomic types    =            2
     number of electrons       =        72.00
     number of Kohn-Sham states=           43
     kinetic-energy cutoff     =      45.0000  Ry
     charge density cutoff     =     360.0000  Ry
     convergence threshold     =      1.6E-09
     mixing beta               =       0.4000
     number of iterations used =            8  plain     mixing
     Exchange-correlation      = SLA  PW   PSX  PSC ( 1  4 10  8 0 0)
     nstep                     =           50


     celldm(1)=   6.556620  celldm(2)=   0.000000  celldm(3)=   0.000000
     celldm(4)=   0.000000  celldm(5)=   0.000000  celldm(6)=   0.000000

     crystal axes: (cart. coord. in units of alat)
               a(1) = (   1.000000   0.000000   0.000000 )  
               a(2) = (   0.000000   1.000000   0.000000 )  
               a(3) = (   0.000000   0.000000   3.382189 )  

     reciprocal axes: (cart. coord. in units 2 pi/alat)
               b(1) = (  1.000000  0.000000  0.000000 )  
               b(2) = (  0.000000  1.000000  0.000000 )  
               b(3) = (  0.000000  0.000000  0.295667 )  


     PseudoPot. # 1 for As read from file:
     ./pseudo/As.pbesol-n-rrkjus_psl.0.2.UPF
     MD5 check sum: 1aa86e6aa4f77befd3aa87cac6788838
     Pseudo is Ultrasoft + core correction, Zval =  5.0
     Generated using "atomic" code by A. Dal Corso  v.6.0 svn rev. 13079
     Using radial grid of 1209 points,  4 beta functions with: 
                l(1) =   0
                l(2) =   0
                l(3) =   1
                l(4) =   1
     Q(r) pseudized with 0 coefficients 


     PseudoPot. # 2 for Ta read from file:
     ./pseudo/ta_pbesol_v1.uspp.F.UPF
     MD5 check sum: 5dd23d6859724cbb2c0d9b6294d5f84c
     Pseudo is Ultrasoft + core correction, Zval = 13.0
     Generated by new atomic code, or converted to UPF format
     Using radial grid of  921 points,  7 beta functions with: 
                l(1) =   0
                l(2) =   0
                l(3) =   1
                l(4) =   1
                l(5) =   2
                l(6) =   2
                l(7) =   3
     Q(r) pseudized with  6 coefficients,  rinner =    1.300   1.300   1.300
                                                       1.300   1.300   1.300
                                                       1.300

     atomic species   valence    mass     pseudopotential
        As             5.00    74.92160     As( 1.00)
        Ta            13.00   180.94788     Ta( 1.00)

      4 Sym. Ops. (no inversion) found


                                    s                        frac. trans.

      isym =  1     identity                                     

 cryst.   s( 1) = (     1          0          0      )
                  (     0          1          0      )
                  (     0          0          1      )

 cart.    s( 1) = (  1.0000000  0.0000000  0.0000000 )
                  (  0.0000000  1.0000000  0.0000000 )
                  (  0.0000000  0.0000000  1.0000000 )


      isym =  2     180 deg rotation - cart. axis [0,0,1]        

 cryst.   s( 2) = (    -1          0          0      )
                  (     0         -1          0      )
                  (     0          0          1      )

 cart.    s( 2) = ( -1.0000000  0.0000000  0.0000000 )
                  (  0.0000000 -1.0000000  0.0000000 )
                  (  0.0000000  0.0000000  1.0000000 )


      isym =  3     inv. 180 deg rotation - cart. axis [0,1,0]   

 cryst.   s( 3) = (     1          0          0      )
                  (     0         -1          0      )
                  (     0          0          1      )

 cart.    s( 3) = (  1.0000000  0.0000000  0.0000000 )
                  (  0.0000000 -1.0000000  0.0000000 )
                  (  0.0000000  0.0000000  1.0000000 )


      isym =  4     inv. 180 deg rotation - cart. axis [1,0,0]   

 cryst.   s( 4) = (    -1          0          0      )
                  (     0          1          0      )
                  (     0          0          1      )

 cart.    s( 4) = ( -1.0000000  0.0000000  0.0000000 )
                  (  0.0000000  1.0000000  0.0000000 )
                  (  0.0000000  0.0000000  1.0000000 )


     point group C_2v (mm2) 
     there are  4 classes
     the character table:

       E     C2    s_v   s_v' 
A_1    1.00  1.00  1.00  1.00
A_2    1.00  1.00 -1.00 -1.00
B_1    1.00 -1.00  1.00 -1.00
B_2    1.00 -1.00 -1.00  1.00

     the symmetry operations in each class and the name of the first element:

     E        1
          identity                                               
     C2       2
          180 deg rotation - cart. axis [0,0,1]                  
     s_v      3
          inv. 180 deg rotation - cart. axis [0,1,0]             
     s_v'     4
          inv. 180 deg rotation - cart. axis [1,0,0]             

   Cartesian axes

     site n.     atom                  positions (alat units)
         1           Ta  tau(   1) = (   0.5000000   0.0000000   0.8453308  )
         2           Ta  tau(   2) = (   0.5000000   0.5000000   3.3819725  )
         3           Ta  tau(   3) = (   0.0000000   0.5000000   2.5364252  )
         4           Ta  tau(   4) = (   0.0000000   0.0000000   1.6908780  )
         5           As  tau(   5) = (   0.0000000   0.5000000   0.5674095  )
         6           As  tau(   6) = (   0.0000000   0.0000000   3.1040512  )
         7           As  tau(   7) = (   0.5000000   0.0000000   2.2585040  )
         8           As  tau(   8) = (   0.5000000   0.5000000   1.4129568  )

   Crystallographic axes

     site n.     atom                  positions (cryst. coord.)
         1           Ta  tau(   1) = (  0.5000000  0.0000000  0.2499360  )
         2           Ta  tau(   2) = (  0.5000000  0.5000000  0.9999360  )
         3           Ta  tau(   3) = (  0.0000000  0.5000000  0.7499360  )
         4           Ta  tau(   4) = (  0.0000000  0.0000000  0.4999360  )
         5           As  tau(   5) = (  0.0000000  0.5000000  0.1677640  )
         6           As  tau(   6) = (  0.0000000  0.0000000  0.9177640  )
         7           As  tau(   7) = (  0.5000000  0.0000000  0.6677640  )
         8           As  tau(   8) = (  0.5000000  0.5000000  0.4177640  )

     number of k points=   162  Marzari-Vanderbilt smearing, width (Ry)=  0.0147
                       cart. coord. in units 2pi/alat
        k(    1) = (   0.0000000   0.0000000   0.0000000), wk =   0.0026042
        k(    2) = (   0.0000000   0.0000000   0.0985555), wk =   0.0052083
        k(    3) = (   0.0000000   0.0625000   0.0000000), wk =   0.0052083
        k(    4) = (   0.0000000   0.0625000   0.0985555), wk =   0.0104167
        k(    5) = (   0.0000000   0.1250000   0.0000000), wk =   0.0052083
        k(    6) = (   0.0000000   0.1250000   0.0985555), wk =   0.0104167
        k(    7) = (   0.0000000   0.1875000   0.0000000), wk =   0.0052083
        k(    8) = (   0.0000000   0.1875000   0.0985555), wk =   0.0104167
        k(    9) = (   0.0000000   0.2500000   0.0000000), wk =   0.0052083
        k(   10) = (   0.0000000   0.2500000   0.0985555), wk =   0.0104167
        k(   11) = (   0.0000000   0.3125000   0.0000000), wk =   0.0052083
        k(   12) = (   0.0000000   0.3125000   0.0985555), wk =   0.0104167
        k(   13) = (   0.0000000   0.3750000   0.0000000), wk =   0.0052083
        k(   14) = (   0.0000000   0.3750000   0.0985555), wk =   0.0104167
        k(   15) = (   0.0000000   0.4375000   0.0000000), wk =   0.0052083
        k(   16) = (   0.0000000   0.4375000   0.0985555), wk =   0.0104167
        k(   17) = (   0.0000000  -0.5000000   0.0000000), wk =   0.0026042
        k(   18) = (   0.0000000  -0.5000000   0.0985555), wk =   0.0052083
        k(   19) = (   0.0625000   0.0625000   0.0000000), wk =   0.0104167
        k(   20) = (   0.0625000   0.0625000   0.0985555), wk =   0.0208333
        k(   21) = (   0.0625000   0.1250000   0.0000000), wk =   0.0104167
        k(   22) = (   0.0625000   0.1250000   0.0985555), wk =   0.0208333
        k(   23) = (   0.0625000   0.1875000   0.0000000), wk =   0.0104167
        k(   24) = (   0.0625000   0.1875000   0.0985555), wk =   0.0208333
        k(   25) = (   0.0625000   0.2500000   0.0000000), wk =   0.0104167
        k(   26) = (   0.0625000   0.2500000   0.0985555), wk =   0.0208333
        k(   27) = (   0.0625000   0.3125000   0.0000000), wk =   0.0104167
        k(   28) = (   0.0625000   0.3125000   0.0985555), wk =   0.0208333
        k(   29) = (   0.0625000   0.3750000   0.0000000), wk =   0.0104167
        k(   30) = (   0.0625000   0.3750000   0.0985555), wk =   0.0208333
        k(   31) = (   0.0625000   0.4375000   0.0000000), wk =   0.0104167
        k(   32) = (   0.0625000   0.4375000   0.0985555), wk =   0.0208333
        k(   33) = (   0.0625000  -0.5000000   0.0000000), wk =   0.0052083
        k(   34) = (   0.0625000  -0.5000000   0.0985555), wk =   0.0104167
        k(   35) = (   0.1250000   0.1250000   0.0000000), wk =   0.0104167
        k(   36) = (   0.1250000   0.1250000   0.0985555), wk =   0.0208333
        k(   37) = (   0.1250000   0.1875000   0.0000000), wk =   0.0104167
        k(   38) = (   0.1250000   0.1875000   0.0985555), wk =   0.0208333
        k(   39) = (   0.1250000   0.2500000   0.0000000), wk =   0.0104167
        k(   40) = (   0.1250000   0.2500000   0.0985555), wk =   0.0208333
        k(   41) = (   0.1250000   0.3125000   0.0000000), wk =   0.0104167
        k(   42) = (   0.1250000   0.3125000   0.0985555), wk =   0.0208333
        k(   43) = (   0.1250000   0.3750000   0.0000000), wk =   0.0104167
        k(   44) = (   0.1250000   0.3750000   0.0985555), wk =   0.0208333
        k(   45) = (   0.1250000   0.4375000   0.0000000), wk =   0.0104167
        k(   46) = (   0.1250000   0.4375000   0.0985555), wk =   0.0208333
        k(   47) = (   0.1250000  -0.5000000   0.0000000), wk =   0.0052083
        k(   48) = (   0.1250000  -0.5000000   0.0985555), wk =   0.0104167
        k(   49) = (   0.1875000   0.1875000   0.0000000), wk =   0.0104167
        k(   50) = (   0.1875000   0.1875000   0.0985555), wk =   0.0208333
        k(   51) = (   0.1875000   0.2500000   0.0000000), wk =   0.0104167
        k(   52) = (   0.1875000   0.2500000   0.0985555), wk =   0.0208333
        k(   53) = (   0.1875000   0.3125000   0.0000000), wk =   0.0104167
        k(   54) = (   0.1875000   0.3125000   0.0985555), wk =   0.0208333
        k(   55) = (   0.1875000   0.3750000   0.0000000), wk =   0.0104167
        k(   56) = (   0.1875000   0.3750000   0.0985555), wk =   0.0208333
        k(   57) = (   0.1875000   0.4375000   0.0000000), wk =   0.0104167
        k(   58) = (   0.1875000   0.4375000   0.0985555), wk =   0.0208333
        k(   59) = (   0.1875000  -0.5000000   0.0000000), wk =   0.0052083
        k(   60) = (   0.1875000  -0.5000000   0.0985555), wk =   0.0104167
        k(   61) = (   0.2500000   0.2500000   0.0000000), wk =   0.0104167
        k(   62) = (   0.2500000   0.2500000   0.0985555), wk =   0.0208333
        k(   63) = (   0.2500000   0.3125000   0.0000000), wk =   0.0104167
        k(   64) = (   0.2500000   0.3125000   0.0985555), wk =   0.0208333
        k(   65) = (   0.2500000   0.3750000   0.0000000), wk =   0.0104167
        k(   66) = (   0.2500000   0.3750000   0.0985555), wk =   0.0208333
        k(   67) = (   0.2500000   0.4375000   0.0000000), wk =   0.0104167
        k(   68) = (   0.2500000   0.4375000   0.0985555), wk =   0.0208333
        k(   69) = (   0.2500000  -0.5000000   0.0000000), wk =   0.0052083
        k(   70) = (   0.2500000  -0.5000000   0.0985555), wk =   0.0104167
        k(   71) = (   0.3125000   0.3125000   0.0000000), wk =   0.0104167
        k(   72) = (   0.3125000   0.3125000   0.0985555), wk =   0.0208333
        k(   73) = (   0.3125000   0.3750000   0.0000000), wk =   0.0104167
        k(   74) = (   0.3125000   0.3750000   0.0985555), wk =   0.0208333
        k(   75) = (   0.3125000   0.4375000   0.0000000), wk =   0.0104167
        k(   76) = (   0.3125000   0.4375000   0.0985555), wk =   0.0208333
        k(   77) = (   0.3125000  -0.5000000   0.0000000), wk =   0.0052083
        k(   78) = (   0.3125000  -0.5000000   0.0985555), wk =   0.0104167
        k(   79) = (   0.3750000   0.3750000   0.0000000), wk =   0.0104167
        k(   80) = (   0.3750000   0.3750000   0.0985555), wk =   0.0208333
        k(   81) = (   0.3750000   0.4375000   0.0000000), wk =   0.0104167
        k(   82) = (   0.3750000   0.4375000   0.0985555), wk =   0.0208333
        k(   83) = (   0.3750000  -0.5000000   0.0000000), wk =   0.0052083
        k(   84) = (   0.3750000  -0.5000000   0.0985555), wk =   0.0104167
        k(   85) = (   0.4375000   0.4375000   0.0000000), wk =   0.0104167
        k(   86) = (   0.4375000   0.4375000   0.0985555), wk =   0.0208333
        k(   87) = (   0.4375000  -0.5000000   0.0000000), wk =   0.0052083
        k(   88) = (   0.4375000  -0.5000000   0.0985555), wk =   0.0104167
        k(   89) = (  -0.5000000  -0.5000000   0.0000000), wk =   0.0026042
        k(   90) = (  -0.5000000  -0.5000000   0.0985555), wk =   0.0052083
        k(   91) = (   0.0625000   0.0000000   0.0000000), wk =   0.0052083
        k(   92) = (   0.0625000   0.0000000  -0.0985555), wk =   0.0104167
        k(   93) = (   0.1250000   0.0000000   0.0000000), wk =   0.0052083
        k(   94) = (   0.1250000   0.0000000  -0.0985555), wk =   0.0104167
        k(   95) = (   0.1875000   0.0000000   0.0000000), wk =   0.0052083
        k(   96) = (   0.1875000   0.0000000  -0.0985555), wk =   0.0104167
        k(   97) = (   0.2500000   0.0000000   0.0000000), wk =   0.0052083
        k(   98) = (   0.2500000   0.0000000  -0.0985555), wk =   0.0104167
        k(   99) = (   0.3125000   0.0000000   0.0000000), wk =   0.0052083
        k(  100) = (   0.3125000   0.0000000  -0.0985555), wk =   0.0104167
        k(  101) = (   0.3750000   0.0000000   0.0000000), wk =   0.0052083
        k(  102) = (   0.3750000   0.0000000  -0.0985555), wk =   0.0104167
        k(  103) = (   0.4375000   0.0000000   0.0000000), wk =   0.0052083
        k(  104) = (   0.4375000   0.0000000  -0.0985555), wk =   0.0104167
        k(  105) = (  -0.5000000   0.0000000   0.0000000), wk =   0.0026042
        k(  106) = (  -0.5000000   0.0000000  -0.0985555), wk =   0.0052083
        k(  107) = (   0.1250000   0.0625000   0.0000000), wk =   0.0104167
        k(  108) = (   0.1250000   0.0625000  -0.0985555), wk =   0.0208333
        k(  109) = (   0.1875000   0.0625000   0.0000000), wk =   0.0104167
        k(  110) = (   0.1875000   0.0625000  -0.0985555), wk =   0.0208333
        k(  111) = (   0.2500000   0.0625000   0.0000000), wk =   0.0104167
        k(  112) = (   0.2500000   0.0625000  -0.0985555), wk =   0.0208333
        k(  113) = (   0.3125000   0.0625000   0.0000000), wk =   0.0104167
        k(  114) = (   0.3125000   0.0625000  -0.0985555), wk =   0.0208333
        k(  115) = (   0.3750000   0.0625000   0.0000000), wk =   0.0104167
        k(  116) = (   0.3750000   0.0625000  -0.0985555), wk =   0.0208333
        k(  117) = (   0.4375000   0.0625000   0.0000000), wk =   0.0104167
        k(  118) = (   0.4375000   0.0625000  -0.0985555), wk =   0.0208333
        k(  119) = (  -0.5000000   0.0625000   0.0000000), wk =   0.0052083
        k(  120) = (  -0.5000000   0.0625000  -0.0985555), wk =   0.0104167
        k(  121) = (   0.1875000   0.1250000   0.0000000), wk =   0.0104167
        k(  122) = (   0.1875000   0.1250000  -0.0985555), wk =   0.0208333
        k(  123) = (   0.2500000   0.1250000   0.0000000), wk =   0.0104167
        k(  124) = (   0.2500000   0.1250000  -0.0985555), wk =   0.0208333
        k(  125) = (   0.3125000   0.1250000   0.0000000), wk =   0.0104167
        k(  126) = (   0.3125000   0.1250000  -0.0985555), wk =   0.0208333
        k(  127) = (   0.3750000   0.1250000   0.0000000), wk =   0.0104167
        k(  128) = (   0.3750000   0.1250000  -0.0985555), wk =   0.0208333
        k(  129) = (   0.4375000   0.1250000   0.0000000), wk =   0.0104167
        k(  130) = (   0.4375000   0.1250000  -0.0985555), wk =   0.0208333
        k(  131) = (  -0.5000000   0.1250000   0.0000000), wk =   0.0052083
        k(  132) = (  -0.5000000   0.1250000  -0.0985555), wk =   0.0104167
        k(  133) = (   0.2500000   0.1875000   0.0000000), wk =   0.0104167
        k(  134) = (   0.2500000   0.1875000  -0.0985555), wk =   0.0208333
        k(  135) = (   0.3125000   0.1875000   0.0000000), wk =   0.0104167
        k(  136) = (   0.3125000   0.1875000  -0.0985555), wk =   0.0208333
        k(  137) = (   0.3750000   0.1875000   0.0000000), wk =   0.0104167
        k(  138) = (   0.3750000   0.1875000  -0.0985555), wk =   0.0208333
        k(  139) = (   0.4375000   0.1875000   0.0000000), wk =   0.0104167
        k(  140) = (   0.4375000   0.1875000  -0.0985555), wk =   0.0208333
        k(  141) = (  -0.5000000   0.1875000   0.0000000), wk =   0.0052083
        k(  142) = (  -0.5000000   0.1875000  -0.0985555), wk =   0.0104167
        k(  143) = (   0.3125000   0.2500000   0.0000000), wk =   0.0104167
        k(  144) = (   0.3125000   0.2500000  -0.0985555), wk =   0.0208333
        k(  145) = (   0.3750000   0.2500000   0.0000000), wk =   0.0104167
        k(  146) = (   0.3750000   0.2500000  -0.0985555), wk =   0.0208333
        k(  147) = (   0.4375000   0.2500000   0.0000000), wk =   0.0104167
        k(  148) = (   0.4375000   0.2500000  -0.0985555), wk =   0.0208333
        k(  149) = (  -0.5000000   0.2500000   0.0000000), wk =   0.0052083
        k(  150) = (  -0.5000000   0.2500000  -0.0985555), wk =   0.0104167
        k(  151) = (   0.3750000   0.3125000   0.0000000), wk =   0.0104167
        k(  152) = (   0.3750000   0.3125000  -0.0985555), wk =   0.0208333
        k(  153) = (   0.4375000   0.3125000   0.0000000), wk =   0.0104167
        k(  154) = (   0.4375000   0.3125000  -0.0985555), wk =   0.0208333
        k(  155) = (  -0.5000000   0.3125000   0.0000000), wk =   0.0052083
        k(  156) = (  -0.5000000   0.3125000  -0.0985555), wk =   0.0104167
        k(  157) = (   0.4375000   0.3750000   0.0000000), wk =   0.0104167
        k(  158) = (   0.4375000   0.3750000  -0.0985555), wk =   0.0208333
        k(  159) = (  -0.5000000   0.3750000   0.0000000), wk =   0.0052083
        k(  160) = (  -0.5000000   0.3750000  -0.0985555), wk =   0.0104167
        k(  161) = (  -0.5000000   0.4375000   0.0000000), wk =   0.0052083
        k(  162) = (  -0.5000000   0.4375000  -0.0985555), wk =   0.0104167

                       cryst. coord.
        k(    1) = (   0.0000000   0.0000000   0.0000000), wk =   0.0026042
        k(    2) = (   0.0000000   0.0000000   0.3333333), wk =   0.0052083
        k(    3) = (   0.0000000   0.0625000   0.0000000), wk =   0.0052083
        k(    4) = (   0.0000000   0.0625000   0.3333333), wk =   0.0104167
        k(    5) = (   0.0000000   0.1250000   0.0000000), wk =   0.0052083
        k(    6) = (   0.0000000   0.1250000   0.3333333), wk =   0.0104167
        k(    7) = (   0.0000000   0.1875000   0.0000000), wk =   0.0052083
        k(    8) = (   0.0000000   0.1875000   0.3333333), wk =   0.0104167
        k(    9) = (   0.0000000   0.2500000   0.0000000), wk =   0.0052083
        k(   10) = (   0.0000000   0.2500000   0.3333333), wk =   0.0104167
        k(   11) = (   0.0000000   0.3125000   0.0000000), wk =   0.0052083
        k(   12) = (   0.0000000   0.3125000   0.3333333), wk =   0.0104167
        k(   13) = (   0.0000000   0.3750000   0.0000000), wk =   0.0052083
        k(   14) = (   0.0000000   0.3750000   0.3333333), wk =   0.0104167
        k(   15) = (   0.0000000   0.4375000   0.0000000), wk =   0.0052083
        k(   16) = (   0.0000000   0.4375000   0.3333333), wk =   0.0104167
        k(   17) = (   0.0000000  -0.5000000   0.0000000), wk =   0.0026042
        k(   18) = (   0.0000000  -0.5000000   0.3333333), wk =   0.0052083
        k(   19) = (   0.0625000   0.0625000   0.0000000), wk =   0.0104167
        k(   20) = (   0.0625000   0.0625000   0.3333333), wk =   0.0208333
        k(   21) = (   0.0625000   0.1250000   0.0000000), wk =   0.0104167
        k(   22) = (   0.0625000   0.1250000   0.3333333), wk =   0.0208333
        k(   23) = (   0.0625000   0.1875000   0.0000000), wk =   0.0104167
        k(   24) = (   0.0625000   0.1875000   0.3333333), wk =   0.0208333
        k(   25) = (   0.0625000   0.2500000   0.0000000), wk =   0.0104167
        k(   26) = (   0.0625000   0.2500000   0.3333333), wk =   0.0208333
        k(   27) = (   0.0625000   0.3125000   0.0000000), wk =   0.0104167
        k(   28) = (   0.0625000   0.3125000   0.3333333), wk =   0.0208333
        k(   29) = (   0.0625000   0.3750000   0.0000000), wk =   0.0104167
        k(   30) = (   0.0625000   0.3750000   0.3333333), wk =   0.0208333
        k(   31) = (   0.0625000   0.4375000   0.0000000), wk =   0.0104167
        k(   32) = (   0.0625000   0.4375000   0.3333333), wk =   0.0208333
        k(   33) = (   0.0625000  -0.5000000   0.0000000), wk =   0.0052083
        k(   34) = (   0.0625000  -0.5000000   0.3333333), wk =   0.0104167
        k(   35) = (   0.1250000   0.1250000   0.0000000), wk =   0.0104167
        k(   36) = (   0.1250000   0.1250000   0.3333333), wk =   0.0208333
        k(   37) = (   0.1250000   0.1875000   0.0000000), wk =   0.0104167
        k(   38) = (   0.1250000   0.1875000   0.3333333), wk =   0.0208333
        k(   39) = (   0.1250000   0.2500000   0.0000000), wk =   0.0104167
        k(   40) = (   0.1250000   0.2500000   0.3333333), wk =   0.0208333
        k(   41) = (   0.1250000   0.3125000   0.0000000), wk =   0.0104167
        k(   42) = (   0.1250000   0.3125000   0.3333333), wk =   0.0208333
        k(   43) = (   0.1250000   0.3750000   0.0000000), wk =   0.0104167
        k(   44) = (   0.1250000   0.3750000   0.3333333), wk =   0.0208333
        k(   45) = (   0.1250000   0.4375000   0.0000000), wk =   0.0104167
        k(   46) = (   0.1250000   0.4375000   0.3333333), wk =   0.0208333
        k(   47) = (   0.1250000  -0.5000000   0.0000000), wk =   0.0052083
        k(   48) = (   0.1250000  -0.5000000   0.3333333), wk =   0.0104167
        k(   49) = (   0.1875000   0.1875000   0.0000000), wk =   0.0104167
        k(   50) = (   0.1875000   0.1875000   0.3333333), wk =   0.0208333
        k(   51) = (   0.1875000   0.2500000   0.0000000), wk =   0.0104167
        k(   52) = (   0.1875000   0.2500000   0.3333333), wk =   0.0208333
        k(   53) = (   0.1875000   0.3125000   0.0000000), wk =   0.0104167
        k(   54) = (   0.1875000   0.3125000   0.3333333), wk =   0.0208333
        k(   55) = (   0.1875000   0.3750000   0.0000000), wk =   0.0104167
        k(   56) = (   0.1875000   0.3750000   0.3333333), wk =   0.0208333
        k(   57) = (   0.1875000   0.4375000   0.0000000), wk =   0.0104167
        k(   58) = (   0.1875000   0.4375000   0.3333333), wk =   0.0208333
        k(   59) = (   0.1875000  -0.5000000   0.0000000), wk =   0.0052083
        k(   60) = (   0.1875000  -0.5000000   0.3333333), wk =   0.0104167
        k(   61) = (   0.2500000   0.2500000   0.0000000), wk =   0.0104167
        k(   62) = (   0.2500000   0.2500000   0.3333333), wk =   0.0208333
        k(   63) = (   0.2500000   0.3125000   0.0000000), wk =   0.0104167
        k(   64) = (   0.2500000   0.3125000   0.3333333), wk =   0.0208333
        k(   65) = (   0.2500000   0.3750000   0.0000000), wk =   0.0104167
        k(   66) = (   0.2500000   0.3750000   0.3333333), wk =   0.0208333
        k(   67) = (   0.2500000   0.4375000   0.0000000), wk =   0.0104167
        k(   68) = (   0.2500000   0.4375000   0.3333333), wk =   0.0208333
        k(   69) = (   0.2500000  -0.5000000   0.0000000), wk =   0.0052083
        k(   70) = (   0.2500000  -0.5000000   0.3333333), wk =   0.0104167
        k(   71) = (   0.3125000   0.3125000   0.0000000), wk =   0.0104167
        k(   72) = (   0.3125000   0.3125000   0.3333333), wk =   0.0208333
        k(   73) = (   0.3125000   0.3750000   0.0000000), wk =   0.0104167
        k(   74) = (   0.3125000   0.3750000   0.3333333), wk =   0.0208333
        k(   75) = (   0.3125000   0.4375000   0.0000000), wk =   0.0104167
        k(   76) = (   0.3125000   0.4375000   0.3333333), wk =   0.0208333
        k(   77) = (   0.3125000  -0.5000000   0.0000000), wk =   0.0052083
        k(   78) = (   0.3125000  -0.5000000   0.3333333), wk =   0.0104167
        k(   79) = (   0.3750000   0.3750000   0.0000000), wk =   0.0104167
        k(   80) = (   0.3750000   0.3750000   0.3333333), wk =   0.0208333
        k(   81) = (   0.3750000   0.4375000   0.0000000), wk =   0.0104167
        k(   82) = (   0.3750000   0.4375000   0.3333333), wk =   0.0208333
        k(   83) = (   0.3750000  -0.5000000   0.0000000), wk =   0.0052083
        k(   84) = (   0.3750000  -0.5000000   0.3333333), wk =   0.0104167
        k(   85) = (   0.4375000   0.4375000   0.0000000), wk =   0.0104167
        k(   86) = (   0.4375000   0.4375000   0.3333333), wk =   0.0208333
        k(   87) = (   0.4375000  -0.5000000   0.0000000), wk =   0.0052083
        k(   88) = (   0.4375000  -0.5000000   0.3333333), wk =   0.0104167
        k(   89) = (  -0.5000000  -0.5000000   0.0000000), wk =   0.0026042
        k(   90) = (  -0.5000000  -0.5000000   0.3333333), wk =   0.0052083
        k(   91) = (   0.0625000   0.0000000   0.0000000), wk =   0.0052083
        k(   92) = (   0.0625000   0.0000000  -0.3333333), wk =   0.0104167
        k(   93) = (   0.1250000   0.0000000   0.0000000), wk =   0.0052083
        k(   94) = (   0.1250000   0.0000000  -0.3333333), wk =   0.0104167
        k(   95) = (   0.1875000   0.0000000   0.0000000), wk =   0.0052083
        k(   96) = (   0.1875000   0.0000000  -0.3333333), wk =   0.0104167
        k(   97) = (   0.2500000   0.0000000   0.0000000), wk =   0.0052083
        k(   98) = (   0.2500000   0.0000000  -0.3333333), wk =   0.0104167
        k(   99) = (   0.3125000   0.0000000   0.0000000), wk =   0.0052083
        k(  100) = (   0.3125000   0.0000000  -0.3333333), wk =   0.0104167
        k(  101) = (   0.3750000   0.0000000   0.0000000), wk =   0.0052083
        k(  102) = (   0.3750000   0.0000000  -0.3333333), wk =   0.0104167
        k(  103) = (   0.4375000   0.0000000   0.0000000), wk =   0.0052083
        k(  104) = (   0.4375000   0.0000000  -0.3333333), wk =   0.0104167
        k(  105) = (  -0.5000000   0.0000000   0.0000000), wk =   0.0026042
        k(  106) = (  -0.5000000   0.0000000  -0.3333333), wk =   0.0052083
        k(  107) = (   0.1250000   0.0625000   0.0000000), wk =   0.0104167
        k(  108) = (   0.1250000   0.0625000  -0.3333333), wk =   0.0208333
        k(  109) = (   0.1875000   0.0625000   0.0000000), wk =   0.0104167
        k(  110) = (   0.1875000   0.0625000  -0.3333333), wk =   0.0208333
        k(  111) = (   0.2500000   0.0625000   0.0000000), wk =   0.0104167
        k(  112) = (   0.2500000   0.0625000  -0.3333333), wk =   0.0208333
        k(  113) = (   0.3125000   0.0625000   0.0000000), wk =   0.0104167
        k(  114) = (   0.3125000   0.0625000  -0.3333333), wk =   0.0208333
        k(  115) = (   0.3750000   0.0625000   0.0000000), wk =   0.0104167
        k(  116) = (   0.3750000   0.0625000  -0.3333333), wk =   0.0208333
        k(  117) = (   0.4375000   0.0625000   0.0000000), wk =   0.0104167
        k(  118) = (   0.4375000   0.0625000  -0.3333333), wk =   0.0208333
        k(  119) = (  -0.5000000   0.0625000   0.0000000), wk =   0.0052083
        k(  120) = (  -0.5000000   0.0625000  -0.3333333), wk =   0.0104167
        k(  121) = (   0.1875000   0.1250000   0.0000000), wk =   0.0104167
        k(  122) = (   0.1875000   0.1250000  -0.3333333), wk =   0.0208333
        k(  123) = (   0.2500000   0.1250000   0.0000000), wk =   0.0104167
        k(  124) = (   0.2500000   0.1250000  -0.3333333), wk =   0.0208333
        k(  125) = (   0.3125000   0.1250000   0.0000000), wk =   0.0104167
        k(  126) = (   0.3125000   0.1250000  -0.3333333), wk =   0.0208333
        k(  127) = (   0.3750000   0.1250000   0.0000000), wk =   0.0104167
        k(  128) = (   0.3750000   0.1250000  -0.3333333), wk =   0.0208333
        k(  129) = (   0.4375000   0.1250000   0.0000000), wk =   0.0104167
        k(  130) = (   0.4375000   0.1250000  -0.3333333), wk =   0.0208333
        k(  131) = (  -0.5000000   0.1250000   0.0000000), wk =   0.0052083
        k(  132) = (  -0.5000000   0.1250000  -0.3333333), wk =   0.0104167
        k(  133) = (   0.2500000   0.1875000   0.0000000), wk =   0.0104167
        k(  134) = (   0.2500000   0.1875000  -0.3333333), wk =   0.0208333
        k(  135) = (   0.3125000   0.1875000   0.0000000), wk =   0.0104167
        k(  136) = (   0.3125000   0.1875000  -0.3333333), wk =   0.0208333
        k(  137) = (   0.3750000   0.1875000   0.0000000), wk =   0.0104167
        k(  138) = (   0.3750000   0.1875000  -0.3333333), wk =   0.0208333
        k(  139) = (   0.4375000   0.1875000   0.0000000), wk =   0.0104167
        k(  140) = (   0.4375000   0.1875000  -0.3333333), wk =   0.0208333
        k(  141) = (  -0.5000000   0.1875000   0.0000000), wk =   0.0052083
        k(  142) = (  -0.5000000   0.1875000  -0.3333333), wk =   0.0104167
        k(  143) = (   0.3125000   0.2500000   0.0000000), wk =   0.0104167
        k(  144) = (   0.3125000   0.2500000  -0.3333333), wk =   0.0208333
        k(  145) = (   0.3750000   0.2500000   0.0000000), wk =   0.0104167
        k(  146) = (   0.3750000   0.2500000  -0.3333333), wk =   0.0208333
        k(  147) = (   0.4375000   0.2500000   0.0000000), wk =   0.0104167
        k(  148) = (   0.4375000   0.2500000  -0.3333333), wk =   0.0208333
        k(  149) = (  -0.5000000   0.2500000   0.0000000), wk =   0.0052083
        k(  150) = (  -0.5000000   0.2500000  -0.3333333), wk =   0.0104167
        k(  151) = (   0.3750000   0.3125000   0.0000000), wk =   0.0104167
        k(  152) = (   0.3750000   0.3125000  -0.3333333), wk =   0.0208333
        k(  153) = (   0.4375000   0.3125000   0.0000000), wk =   0.0104167
        k(  154) = (   0.4375000   0.3125000  -0.3333333), wk =   0.0208333
        k(  155) = (  -0.5000000   0.3125000   0.0000000), wk =   0.0052083
        k(  156) = (  -0.5000000   0.3125000  -0.3333333), wk =   0.0104167
        k(  157) = (   0.4375000   0.3750000   0.0000000), wk =   0.0104167
        k(  158) = (   0.4375000   0.3750000  -0.3333333), wk =   0.0208333
        k(  159) = (  -0.5000000   0.3750000   0.0000000), wk =   0.0052083
        k(  160) = (  -0.5000000   0.3750000  -0.3333333), wk =   0.0104167
        k(  161) = (  -0.5000000   0.4375000   0.0000000), wk =   0.0052083
        k(  162) = (  -0.5000000   0.4375000  -0.3333333), wk =   0.0104167

     Dense  grid:   109977 G-vectors     FFT dimensions: (  40,  40, 135)

     Smooth grid:    38875 G-vectors     FFT dimensions: (  30,  30,  96)

     Largest allocated arrays     est. size (Mb)     dimensions
        Kohn-Sham Wavefunctions         3.21 Mb     (    4892,   43)
        NL pseudopotentials             9.85 Mb     (    4892,  132)
        Each V/rho on FFT grid          3.30 Mb     (  216000)
        Each G-vector array             0.84 Mb     (  109977)
        G-vector shells                 0.05 Mb     (    6686)
     Largest temporary arrays     est. size (Mb)     dimensions
        Auxiliary wavefunctions        12.84 Mb     (    4892,  172)
        Each subspace H/S matrix        0.45 Mb     (     172,  172)
        Each <psi_i|beta_j> matrix      0.09 Mb     (     132,   43)
        Arrays for rho mixing          26.37 Mb     (  216000,    8)

     Initial potential from superposition of free atoms
     Check: negative starting charge=   -0.378193

     starting charge   71.99505, renormalised to   72.00000

     negative rho (up, down):  3.782E-01 0.000E+00
     Starting wfc are   68 randomized atomic wfcs

     total cpu time spent up to now is      107.8 secs

     Self-consistent Calculation

     iteration #  1     ecut=    45.00 Ry     beta=0.40
     Davidson diagonalization with overlap
     ethr =  1.00E-02,  avg # of iterations =  2.0

     Threshold (ethr) on eigenvalues was too large:
     Diagonalizing with lowered threshold

     Davidson diagonalization with overlap
     ethr =  2.34E-04,  avg # of iterations =  2.3

     negative rho (up, down):  3.858E-01 0.000E+00

     total cpu time spent up to now is      446.1 secs

     total energy              =    -639.99790985 Ry
     Harris-Foulkes estimate   =    -640.07472007 Ry
     estimated scf accuracy    <       0.17350787 Ry

     iteration #  2     ecut=    45.00 Ry     beta=0.40
     Davidson diagonalization with overlap
     ethr =  2.41E-04,  avg # of iterations =  2.1

     negative rho (up, down):  3.912E-01 0.000E+00

     total cpu time spent up to now is      612.1 secs

     total energy              =    -640.02156886 Ry
     Harris-Foulkes estimate   =    -640.02616971 Ry
     estimated scf accuracy    <       0.01952732 Ry

     iteration #  3     ecut=    45.00 Ry     beta=0.40
     Davidson diagonalization with overlap
     ethr =  2.71E-05,  avg # of iterations =  2.1

     negative rho (up, down):  3.978E-01 0.000E+00

     total cpu time spent up to now is      785.1 secs

     total energy              =    -640.02135952 Ry
     Harris-Foulkes estimate   =    -640.02252988 Ry
     estimated scf accuracy    <       0.00523584 Ry

     iteration #  4     ecut=    45.00 Ry     beta=0.40
     Davidson diagonalization with overlap
     ethr =  7.27E-06,  avg # of iterations =  3.3

     negative rho (up, down):  3.987E-01 0.000E+00

     total cpu time spent up to now is      999.1 secs

     total energy              =    -640.02157136 Ry
     Harris-Foulkes estimate   =    -640.02185740 Ry
     estimated scf accuracy    <       0.00057213 Ry

     iteration #  5     ecut=    45.00 Ry     beta=0.40
     Davidson diagonalization with overlap
     ethr =  7.95E-07,  avg # of iterations =  5.8

     negative rho (up, down):  3.991E-01 0.000E+00

     total cpu time spent up to now is     1247.1 secs

     total energy              =    -640.02159416 Ry
     Harris-Foulkes estimate   =    -640.02196710 Ry
     estimated scf accuracy    <       0.00350972 Ry

     iteration #  6     ecut=    45.00 Ry     beta=0.40
     Davidson diagonalization with overlap
     ethr =  7.95E-07,  avg # of iterations =  4.7

     negative rho (up, down):  3.992E-01 0.000E+00

     total cpu time spent up to now is     1445.9 secs

     total energy              =    -640.02168259 Ry
     Harris-Foulkes estimate   =    -640.02182176 Ry
     estimated scf accuracy    <       0.00028706 Ry

     iteration #  7     ecut=    45.00 Ry     beta=0.40
     Davidson diagonalization with overlap
     ethr =  3.99E-07,  avg # of iterations =  2.6

     negative rho (up, down):  3.992E-01 0.000E+00

     total cpu time spent up to now is     1622.0 secs

     total energy              =    -640.02173534 Ry
     Harris-Foulkes estimate   =    -640.02173593 Ry
     estimated scf accuracy    <       0.00000160 Ry

     iteration #  8     ecut=    45.00 Ry     beta=0.40
     Davidson diagonalization with overlap
     ethr =  2.22E-09,  avg # of iterations =  3.7

     negative rho (up, down):  3.992E-01 0.000E+00

     total cpu time spent up to now is     1837.4 secs

     total energy              =    -640.02173602 Ry
     Harris-Foulkes estimate   =    -640.02173629 Ry
     estimated scf accuracy    <       0.00000112 Ry

     iteration #  9     ecut=    45.00 Ry     beta=0.40
     Davidson diagonalization with overlap
     ethr =  1.55E-09,  avg # of iterations =  2.5

     negative rho (up, down):  3.992E-01 0.000E+00

     total cpu time spent up to now is     1990.4 secs

     total energy              =    -640.02173614 Ry
     Harris-Foulkes estimate   =    -640.02173616 Ry
     estimated scf accuracy    <       0.00000006 Ry

     iteration # 10     ecut=    45.00 Ry     beta=0.40
     Davidson diagonalization with overlap
     ethr =  7.88E-11,  avg # of iterations =  3.1

     negative rho (up, down):  3.992E-01 0.000E+00

     total cpu time spent up to now is     2181.5 secs

     total energy              =    -640.02173615 Ry
     Harris-Foulkes estimate   =    -640.02173616 Ry
     estimated scf accuracy    <       0.00000005 Ry

     iteration # 11     ecut=    45.00 Ry     beta=0.40
     Davidson diagonalization with overlap
     ethr =  6.97E-11,  avg # of iterations =  2.5

     negative rho (up, down):  3.992E-01 0.000E+00

     total cpu time spent up to now is     2333.7 secs

     total energy              =    -640.02173615 Ry
     Harris-Foulkes estimate   =    -640.02173616 Ry
     estimated scf accuracy    <       0.00000006 Ry

     iteration # 12     ecut=    45.00 Ry     beta=0.40
     Davidson diagonalization with overlap
     ethr =  6.97E-11,  avg # of iterations =  2.0

     negative rho (up, down):  3.992E-01 0.000E+00

     total cpu time spent up to now is     2490.8 secs

     End of self-consistent calculation

          k = 0.0000 0.0000 0.0000 (  4835 PWs)   bands (ev):

   -53.7124 -53.7075 -53.7075 -53.7027 -20.2663 -20.2378 -20.2378 -20.2345
   -20.2345 -20.1531 -20.1531 -20.0915 -20.0915 -20.0880 -20.0880 -20.0370
     0.7828   1.7736   1.7736   3.2628   7.7938  10.2106  10.2106  11.6227
    11.8426  11.8427  11.9324  11.9324  12.2306  12.2307  12.3916  12.8315
    13.0745  13.0745  13.7307  13.7307  15.5448  15.8820  15.8820  16.2612
    16.9871  16.9871  16.9954

     occupation numbers 
     1.0000   1.0000   1.0000   1.0000   1.0000   1.0000   1.0000   1.0000
     1.0000   1.0000   1.0000   1.0000   1.0000   1.0000   1.0000   1.0000
     1.0000   1.0000   1.0000   1.0000   1.0000   1.0000   1.0000   1.0000
     1.0000   1.0000   1.0000   1.0000   1.0000   1.0000   1.0000   1.0000
     1.0000   1.0000   1.0000   1.0000   0.0000   0.0000   0.0000   0.0000
     0.0000   0.0000   0.0000

          k = 0.0000 0.0000 0.0986 (  4788 PWs)   bands (ev):

   -53.7117 -53.7099 -53.7051 -53.7033 -20.2509 -20.2369 -20.2369 -20.2352
   -20.2352 -20.2099 -20.0952 -20.0905 -20.0905 -20.0888 -20.0888 -20.0526
     0.9015   1.2450   2.4094   2.9991   8.1748   9.1016  11.0667  11.4745
    11.9147  11.9147  12.0095  12.0981  12.0981  12.2493  12.2531  12.7129
    13.2670  13.2670  13.5835  13.5835  15.5879  15.7089  16.0657  16.2075
    17.1515  17.1515  17.2180

     occupation numbers 
     1.0000   1.0000   1.0000   1.0000   1.0000   1.0000   1.0000   1.0000
     1.0000   1.0000   1.0000   1.0000   1.0000   1.0000   1.0000   1.0000
     1.0000   1.0000   1.0000   1.0000   1.0000   1.0000   1.0000   1.0000
     1.0000   1.0000   1.0000   1.0000   1.0000   1.0000   1.0000   1.0000
     1.0000   1.0000   1.0000   1.0000   0.0000   0.0000   0.0000   0.0000
     0.0000   0.0000   0.0000

          k = 0.0000 0.0625 0.0000 (  4828 PWs)   bands (ev):

   -53.7122 -53.7074 -53.7073 -53.7026 -20.2657 -20.2445 -20.2392 -20.2372
   -20.2341 -20.1536 -20.1512 -20.0970 -20.0922 -20.0910 -20.0874 -20.0370
     0.8342   1.8107   1.8194   3.2833   7.8243  10.1782  10.2134  11.4784
    11.5437  11.8091  11.8568  12.1345  12.1952  12.2001  12.4330  12.6917
    13.0525  13.2158  13.5478  13.8257  15.4638  15.7229  16.1145  16.1568
    16.8209  17.0016  17.0157

     occupation numbers 
     1.0000   1.0000   1.0000   1.0000   1.0000   1.0000   1.0000   1.0000
     1.0000   1.0000   1.0000   1.0000   1.0000   1.0000   1.0000   1.0000
     1.0000   1.0000   1.0000   1.0000   1.0000   1.0000   1.0000   1.0000
     1.0000   1.0000   1.0000   1.0000   1.0000   1.0000   1.0000   1.0000
     1.0000   1.0000   1.0000   1.0000   0.0000   0.0000   0.0000   0.0000
     0.0000   0.0000   0.0000

          k = 0.0000 0.0625 0.0986 (  4805 PWs)   bands (ev):

   -53.7115 -53.7098 -53.7050 -53.7032 -20.2523 -20.2440 -20.2385 -20.2364
   -20.2347 -20.2079 -20.0993 -20.0962 -20.0899 -20.0894 -20.0882 -20.0523
     0.9518   1.2920   2.4433   3.0243   8.1975   9.1067  11.0273  11.3690
    11.6740  11.9224  11.9639  11.9686  12.0847  12.2548  12.3610  12.6798
    13.1992  13.3562  13.4395  13.6702  15.5343  15.6767  16.0712  16.1163
    16.9000  17.0968  17.2302

     occupation numbers 
     1.0000   1.0000   1.0000   1.0000   1.0000   1.0000   1.0000   1.0000
     1.0000   1.0000   1.0000   1.0000   1.0000   1.0000   1.0000   1.0000
     1.0000   1.0000   1.0000   1.0000   1.0000   1.0000   1.0000   1.0000
     1.0000   1.0000   1.0000   1.0000   1.0000   1.0000   1.0000   1.0000
     1.0000   1.0000   1.0000   1.0000   0.0000   0.0000   0.0000   0.0000
     0.0000   0.0000   0.0000

          k = 0.0000 0.1250 0.0000 (  4826 PWs)   bands (ev):

   -53.7116 -53.7072 -53.7068 -53.7023 -20.2690 -20.2628 -20.2473 -20.2355
   -20.2324 -20.1561 -20.1466 -20.1124 -20.1034 -20.0892 -20.0860 -20.0374
     0.9860   1.9196   1.9533   3.3402   7.9104  10.0593  10.1494  11.1540
    11.1748  11.6126  11.6216  11.8914  12.0911  12.4819  12.5613  12.7327
    12.9847  13.1586  13.4152  14.0792  15.2980  15.3612  15.9511  16.4852
    16.6154  16.7771  17.0643

     occupation numbers 
     1.0000   1.0000   1.0000   1.0000   1.0000   1.0000   1.0000   1.0000
     1.0000   1.0000   1.0000   1.0000   1.0000   1.0000   1.0000   1.0000
     1.0000   1.0000   1.0000   1.0000   1.0000   1.0000   1.0000   1.0000
     1.0000   1.0000   1.0000   1.0000   1.0000   1.0000   1.0000   1.0000
     1.0000   1.0000   1.0000   1.0024   0.0000   0.0000   0.0000   0.0000
     0.0000   0.0000   0.0000

          k = 0.0000 0.1250 0.0986 (  4818 PWs)   bands (ev):

   -53.7110 -53.7093 -53.7046 -53.7029 -20.2642 -20.2624 -20.2390 -20.2347
   -20.2332 -20.2038 -20.1126 -20.1116 -20.0892 -20.0883 -20.0867 -20.0520
     1.1001   1.4300   2.5416   3.0958   8.2588   9.1074  10.7736  11.0419
    11.3513  11.5539  11.8434  11.9363  12.0354  12.3128  12.5507  12.7090
    13.0295  13.1157  13.5719  13.9068  15.3700  15.3945  15.9798  16.2498
    16.5583  16.7203  17.4115

     occupation numbers 
     1.0000   1.0000   1.0000   1.0000   1.0000   1.0000   1.0000   1.0000
     1.0000   1.0000   1.0000   1.0000   1.0000   1.0000   1.0000   1.0000
     1.0000   1.0000   1.0000   1.0000   1.0000   1.0000   1.0000   1.0000
     1.0000   1.0000   1.0000   1.0000   1.0000   1.0000   1.0000   1.0000
     1.0000   1.0000   1.0000   1.0000   0.0000   0.0000   0.0000   0.0000
     0.0000   0.0000   0.0000

          k = 0.0000 0.1875 0.0000 (  4836 PWs)   bands (ev):

   -53.7107 -53.7067 -53.7059 -53.7019 -20.2889 -20.2885 -20.2447 -20.2329
   -20.2302 -20.1633 -20.1423 -20.1347 -20.1150 -20.0867 -20.0838 -20.0392
     1.2306   2.0929   2.1636   3.4202   8.0337   9.7739   9.8356  10.7628
    10.8839  11.0189  11.5453  11.9167  11.9298  12.7289  12.7319  12.7608
    12.8709  12.8892  13.6388  14.4548  14.9690  15.1524  15.7840  16.1151
    16.3606  16.8565  17.0263

     occupation numbers 
     1.0000   1.0000   1.0000   1.0000   1.0000   1.0000   1.0000   1.0000
     1.0000   1.0000   1.0000   1.0000   1.0000   1.0000   1.0000   1.0000
     1.0000   1.0000   1.0000   1.0000   1.0000   1.0000   1.0000   1.0000
     1.0000   1.0000   1.0000   1.0000   1.0000   1.0000   1.0000   1.0000
     1.0000   1.0000   1.0000   1.0303   0.0030   0.0000   0.0000   0.0000
     0.0000   0.0000   0.0000

          k = 0.0000 0.1875 0.0986 (  4833 PWs)   bands (ev):

   -53.7102 -53.7086 -53.7041 -53.7025 -20.2883 -20.2878 -20.2336 -20.2322
   -20.2309 -20.2001 -20.1334 -20.1321 -20.0884 -20.0860 -20.0845 -20.0528
     1.3387   1.6504   2.6934   3.2006   8.3353   9.0584  10.1922  10.4839
    11.0959  11.1495  11.8556  11.9240  11.9304  12.4616  12.7243  12.7754
    12.7912  12.8297  13.8562  14.2527  15.0408  15.1471  15.9246  16.2009
    16.3382  16.4041  17.0625

     occupation numbers 
     1.0000   1.0000   1.0000   1.0000   1.0000   1.0000   1.0000   1.0000
     1.0000   1.0000   1.0000   1.0000   1.0000   1.0000   1.0000   1.0000
     1.0000   1.0000   1.0000   1.0000   1.0000   1.0000   1.0000   1.0000
     1.0000   1.0000   1.0000   1.0000   1.0000   1.0000   1.0000   1.0000
     1.0000   1.0000   1.0000   1.0393   0.0005   0.0000   0.0000   0.0000
     0.0000   0.0000   0.0000

          k = 0.0000 0.2500 0.0000 (  4834 PWs)   bands (ev):

   -53.7097 -53.7063 -53.7049 -53.7015 -20.3185 -20.3163 -20.2364 -20.2298
   -20.2276 -20.1785 -20.1598 -20.1439 -20.1160 -20.0837 -20.0812 -20.0425
     1.5547   2.3184   2.4292   3.5020   8.1531   9.1182   9.5444  10.0816
    10.4542  11.1489  11.5374  11.7370  11.8633  12.4786  12.7230  12.9181
    12.9300  13.0209  13.8514  14.6528  14.9211  15.0597  15.7166  15.7740
    16.1121  16.6585  16.8176

     occupation numbers 
     1.0000   1.0000   1.0000   1.0000   1.0000   1.0000   1.0000   1.0000
     1.0000   1.0000   1.0000   1.0000   1.0000   1.0000   1.0000   1.0000
     1.0000   1.0000   1.0000   1.0000   1.0000   1.0000   1.0000   1.0000
     1.0000   1.0000   1.0000   1.0000   1.0000   1.0000   1.0000   1.0000
     1.0000   1.0000   1.0000   0.4155   0.0086   0.0003   0.0000   0.0000
     0.0000   0.0000   0.0000

          k = 0.0000 0.2500 0.0986 (  4831 PWs)   bands (ev):

   -53.7092 -53.7077 -53.7035 -53.7020 -20.3176 -20.3165 -20.2293 -20.2282
   -20.2267 -20.1996 -20.1574 -20.1518 -20.0873 -20.0831 -20.0819 -20.0549
     1.6539   1.9383   2.8795   3.3176   8.3817   8.8788   9.5453   9.7951
    10.7642  11.0533  11.7677  11.8311  11.9590  12.5298  12.6514  12.6526
    12.8661  12.8672  14.1378  14.6416  14.7598  14.9683  15.9131  15.9254
    16.0873  16.4568  16.7316

     occupation numbers 
     1.0000   1.0000   1.0000   1.0000   1.0000   1.0000   1.0000   1.0000
     1.0000   1.0000   1.0000   1.0000   1.0000   1.0000   1.0000   1.0000
     1.0000   1.0000   1.0000   1.0000   1.0000   1.0000   1.0000   1.0000
     1.0000   1.0000   1.0000   1.0000   1.0000   1.0000   1.0000   1.0000
     1.0000   1.0000   1.0075   0.4553   0.1322   0.0031   0.0000   0.0000
     0.0000   0.0000   0.0000

          k = 0.0000 0.3125 0.0000 (  4832 PWs)   bands (ev):

   -53.7086 -53.7059 -53.7038 -53.7011 -20.3471 -20.3450 -20.2282 -20.2267
   -20.2250 -20.1990 -20.1821 -20.1498 -20.1077 -20.0807 -20.0787 -20.0478
     1.9371   2.5787   2.7138   3.5588   8.1864   8.4305   9.2469   9.3935
    10.2496  11.3493  11.5472  11.5579  11.6887  12.3613  12.5665  12.9928
    13.0355  13.1610  13.9850  14.4703  14.9975  15.2733  15.6753  15.7539
    16.1327  16.5582  16.7425

     occupation numbers 
     1.0000   1.0000   1.0000   1.0000   1.0000   1.0000   1.0000   1.0000
     1.0000   1.0000   1.0000   1.0000   1.0000   1.0000   1.0000   1.0000
     1.0000   1.0000   1.0000   1.0000   1.0000   1.0000   1.0000   1.0000
     1.0000   1.0000   1.0000   1.0000   1.0000   1.0000   1.0000   1.0000
     1.0000   1.0000   1.0003   1.0048   0.0015   0.0000   0.0000   0.0000
     0.0000   0.0000   0.0000

          k = 0.0000 0.3125 0.0986 (  4846 PWs)   bands (ev):

   -53.7081 -53.7069 -53.7028 -53.7016 -20.3464 -20.3452 -20.2264 -20.2255
   -20.2226 -20.2078 -20.1771 -20.1636 -20.0858 -20.0802 -20.0793 -20.0585
     2.0239   2.2703   3.0698   3.4177   8.3203   8.4602   9.0956   9.1611
    10.5893  11.0461  11.5822  11.6534  12.0713  12.4012  12.5039  12.7492
    12.9636  12.9816  14.2982  14.6076  14.8774  14.8803  15.8893  15.9422
    16.0888  16.4285  16.6724

     occupation numbers 
     1.0000   1.0000   1.0000   1.0000   1.0000   1.0000   1.0000   1.0000
     1.0000   1.0000   1.0000   1.0000   1.0000   1.0000   1.0000   1.0000
     1.0000   1.0000   1.0000   1.0000   1.0000   1.0000   1.0000   1.0000
     1.0000   1.0000   1.0000   1.0000   1.0000   1.0000   1.0000   1.0000
     1.0000   1.0000   1.0602   0.5810   0.0204   0.0193   0.0000   0.0000
     0.0000   0.0000   0.0000

          k = 0.0000 0.3750 0.0000 (  4854 PWs)   bands (ev):

   -53.7076 -53.7057 -53.7028 -53.7009 -20.3711 -20.3693 -20.2274 -20.2241
   -20.2229 -20.2186 -20.1919 -20.1573 -20.0967 -20.0780 -20.0768 -20.0548
     2.3438   2.8487   2.9610   3.5627   7.8561   8.0148   8.9293   8.9893
    10.2484  11.2761  11.3933  11.4905  11.8220  12.3158  12.4301  12.9322
    13.0346  13.2279  14.0857  14.4370  14.9255  15.1213  15.8743  16.1616
    16.4037  16.6088  16.7793

     occupation numbers 
     1.0000   1.0000   1.0000   1.0000   1.0000   1.0000   1.0000   1.0000
     1.0000   1.0000   1.0000   1.0000   1.0000   1.0000   1.0000   1.0000
     1.0000   1.0000   1.0000   1.0000   1.0000   1.0000   1.0000   1.0000
     1.0000   1.0000   1.0000   1.0000   1.0000   1.0000   1.0000   1.0000
     1.0000   1.0000   1.0027   1.0528   0.0079   0.0001   0.0000   0.0000
     0.0000   0.0000   0.0000

          k = 0.0000 0.3750 0.0986 (  4848 PWs)   bands (ev):

   -53.7072 -53.7063 -53.7021 -53.7013 -20.3704 -20.3695 -20.2273 -20.2238
   -20.2232 -20.2225 -20.1836 -20.1673 -20.0832 -20.0777 -20.0770 -20.0632
     2.4142   2.6113   3.2215   3.4669   7.9528   8.0544   8.7658   8.8361
    10.5796  11.0558  11.4207  11.4701  12.1738  12.3278  12.3857  12.6894
    13.0151  13.1378  14.3129  14.5883  14.8232  14.8506  15.9617  16.2581
    16.3401  16.3705  16.8893

     occupation numbers 
     1.0000   1.0000   1.0000   1.0000   1.0000   1.0000   1.0000   1.0000
     1.0000   1.0000   1.0000   1.0000   1.0000   1.0000   1.0000   1.0000
     1.0000   1.0000   1.0000   1.0000   1.0000   1.0000   1.0000   1.0000
     1.0000   1.0000   1.0000   1.0000   1.0000   1.0000   1.0000   1.0000
     1.0000   1.0000   1.0669   0.6536   0.0524   0.0331   0.0000   0.0000
     0.0000   0.0000   0.0000

          k = 0.0000 0.4375 0.0000 (  4854 PWs)   bands (ev):

   -53.7067 -53.7057 -53.7019 -53.7009 -20.3868 -20.3858 -20.2344 -20.2322
   -20.2222 -20.2216 -20.1864 -20.1663 -20.0848 -20.0763 -20.0755 -20.0635
     2.7200   3.0480   3.1406   3.4929   7.5075   7.6859   8.7386   8.8037
    10.4329  11.0297  11.2999  11.3470  12.1915  12.2888  12.3347  12.8110
    12.9900  13.0983  14.3019  14.5224  14.8146  14.8804  16.0477  16.4383
    16.6734  16.7746  17.1153

     occupation numbers 
     1.0000   1.0000   1.0000   1.0000   1.0000   1.0000   1.0000   1.0000
     1.0000   1.0000   1.0000   1.0000   1.0000   1.0000   1.0000   1.0000
     1.0000   1.0000   1.0000   1.0000   1.0000   1.0000   1.0000   1.0000
     1.0000   1.0000   1.0000   1.0000   1.0000   1.0000   1.0000   1.0000
     1.0000   1.0000   1.0620   0.8795   0.0600   0.0193   0.0000   0.0000
     0.0000   0.0000   0.0000

          k = 0.0000 0.4375 0.0986 (  4867 PWs)   bands (ev):

   -53.7065 -53.7060 -53.7016 -53.7012 -20.3863 -20.3858 -20.2360 -20.2347
   -20.2221 -20.2218 -20.1797 -20.1698 -20.0795 -20.0760 -20.0757 -20.0687
     2.7687   2.9016   3.2920   3.4370   7.6015   7.7045   8.6113   8.6667
    10.6935  10.9976  11.3166  11.3406  12.2814  12.2958  12.3050  12.5757
    13.0554  13.1820  14.3505  14.6609  14.6649  14.8275  16.0024  16.2151
    16.7258  16.7617  17.0667

     occupation numbers 
     1.0000   1.0000   1.0000   1.0000   1.0000   1.0000   1.0000   1.0000
     1.0000   1.0000   1.0000   1.0000   1.0000   1.0000   1.0000   1.0000
     1.0000   1.0000   1.0000   1.0000   1.0000   1.0000   1.0000   1.0000
     1.0000   1.0000   1.0000   1.0000   1.0000   1.0000   1.0000   1.0000
     1.0000   1.0000   1.0803   0.3877   0.3745   0.0488   0.0000   0.0000
     0.0000   0.0000   0.0000

          k = 0.0000-0.5000 0.0000 (  4866 PWs)   bands (ev):

   -53.7061 -53.7061 -53.7013 -53.7013 -20.3919 -20.3919 -20.2376 -20.2375
   -20.2214 -20.2214 -20.1764 -20.1764 -20.0753 -20.0753 -20.0737 -20.0737
     2.9843   2.9843   3.3444   3.3444   7.4603   7.4604   8.7135   8.7135
    10.7221  10.7221  11.2822  11.2823  12.2895  12.2895  12.5565  12.5565
    12.9865  12.9865  14.5951  14.5952  14.6678  14.6678  16.2444  16.2444
    16.8981  16.8981  17.1798

     occupation numbers 
     1.0000   1.0000   1.0000   1.0000   1.0000   1.0000   1.0000   1.0000
     1.0000   1.0000   1.0000   1.0000   1.0000   1.0000   1.0000   1.0000
     1.0000   1.0000   1.0000   1.0000   1.0000   1.0000   1.0000   1.0000
     1.0000   1.0000   1.0000   1.0000   1.0000   1.0000   1.0000   1.0000
     1.0000   1.0000   0.6279   0.6279   0.3649   0.3649   0.0000   0.0000
     0.0000   0.0000   0.0000

          k = 0.0000-0.5000 0.0986 (  4862 PWs)   bands (ev):

   -53.7061 -53.7061 -53.7013 -53.7013 -20.3916 -20.3916 -20.2395 -20.2395
   -20.2214 -20.2214 -20.1740 -20.1740 -20.0753 -20.0753 -20.0744 -20.0744
     2.9864   2.9865   3.3409   3.3410   7.5167   7.5168   8.5872   8.5872
    10.8580  10.8580  11.2879  11.2879  12.2703  12.2703  12.4396  12.4396
    13.1204  13.1204  14.4904  14.4904  14.7604  14.7604  16.0899  16.0899
    16.9032  16.9032  17.1093

     occupation numbers 
     1.0000   1.0000   1.0000   1.0000   1.0000   1.0000   1.0000   1.0000
     1.0000   1.0000   1.0000   1.0000   1.0000   1.0000   1.0000   1.0000
     1.0000   1.0000   1.0000   1.0000   1.0000   1.0000   1.0000   1.0000
     1.0000   1.0000   1.0000   1.0000   1.0000   1.0000   1.0000   1.0000
     1.0000   1.0000   0.9637   0.9637   0.1311   0.1311   0.0000   0.0000
     0.0000   0.0000   0.0000

          k = 0.0625 0.0625 0.0000 (  4820 PWs)   bands (ev):

   -53.7120 -53.7072 -53.7072 -53.7025 -20.2649 -20.2439 -20.2439 -20.2402
   -20.2371 -20.1517 -20.1517 -20.0970 -20.0957 -20.0917 -20.0917 -20.0369
     0.8851   1.8559   1.8559   3.3031   7.8574  10.1887  10.1887  11.3676
    11.5037  11.5037  12.0682  12.1063  12.1063  12.1993  12.2715  12.6179
    13.1292  13.3106  13.6396  13.6396  15.3708  15.9682  15.9682  16.0301
    16.8442  16.8442  17.0939

     occupation numbers 
     1.0000   1.0000   1.0000   1.0000   1.0000   1.0000   1.0000   1.0000
     1.0000   1.0000   1.0000   1.0000   1.0000   1.0000   1.0000   1.0000
     1.0000   1.0000   1.0000   1.0000   1.0000   1.0000   1.0000   1.0000
     1.0000   1.0000   1.0000   1.0000   1.0000   1.0000   1.0000   1.0000
     1.0000   1.0000   1.0000   1.0000   0.0000   0.0000   0.0000   0.0000
     0.0000   0.0000   0.0000

          k = 0.0625 0.0625 0.0986 (  4806 PWs)   bands (ev):

   -53.7113 -53.7096 -53.7049 -53.7031 -20.2528 -20.2439 -20.2428 -20.2411
   -20.2354 -20.2058 -20.1010 -20.0964 -20.0948 -20.0929 -20.0870 -20.0519
     1.0015   1.3384   2.4765   3.0488   8.2233   9.1161  11.0020  11.2828
    11.6181  11.6799  11.9523  11.9904  12.0730  12.1649  12.3310  12.6079
    13.2624  13.3958  13.4896  13.5912  15.4815  15.7552  15.9634  15.9939
    16.9452  17.0916  17.1896

     occupation numbers 
     1.0000   1.0000   1.0000   1.0000   1.0000   1.0000   1.0000   1.0000
     1.0000   1.0000   1.0000   1.0000   1.0000   1.0000   1.0000   1.0000
     1.0000   1.0000   1.0000   1.0000   1.0000   1.0000   1.0000   1.0000
     1.0000   1.0000   1.0000   1.0000   1.0000   1.0000   1.0000   1.0000
     1.0000   1.0000   1.0000   1.0000   0.0000   0.0000   0.0000   0.0000
     0.0000   0.0000   0.0000

          k = 0.0625 0.1250 0.0000 (  4835 PWs)   bands (ev):

   -53.7114 -53.7070 -53.7067 -53.7022 -20.2681 -20.2622 -20.2480 -20.2422
   -20.2362 -20.1542 -20.1471 -20.1119 -20.1029 -20.0946 -20.0903 -20.0374
     1.0351   1.9629   1.9878   3.3579   7.9511  10.0856  10.1544  11.0759
    11.1157  11.4288  11.6188  11.9537  11.9793  12.3053  12.3135  12.6802
    13.2279  13.2870  13.4868  13.8617  15.1929  15.6548  15.7831  16.4512
    16.5700  16.9015  16.9455

     occupation numbers 
     1.0000   1.0000   1.0000   1.0000   1.0000   1.0000   1.0000   1.0000
     1.0000   1.0000   1.0000   1.0000   1.0000   1.0000   1.0000   1.0000
     1.0000   1.0000   1.0000   1.0000   1.0000   1.0000   1.0000   1.0000
     1.0000   1.0000   1.0000   1.0000   1.0000   1.0000   1.0000   1.0000
     1.0000   1.0000   1.0000   1.0000   0.0000   0.0000   0.0000   0.0000
     0.0000   0.0000   0.0000

          k = 0.0625 0.1250 0.0986 (  4832 PWs)   bands (ev):

   -53.7108 -53.7091 -53.7045 -53.7028 -20.2635 -20.2618 -20.2435 -20.2417
   -20.2332 -20.2019 -20.1125 -20.1111 -20.0943 -20.0939 -20.0859 -20.0517
     1.1481   1.4746   2.5727   3.1182   8.2929   9.1287  10.7833  10.9935
    11.2982  11.5458  11.6272  11.9266  11.9844  12.1240  12.3931  12.5881
    13.2304  13.2662  13.6145  13.7972  15.3207  15.5274  15.8101  16.0964
    16.6843  16.8843  17.3024

     occupation numbers 
     1.0000   1.0000   1.0000   1.0000   1.0000   1.0000   1.0000   1.0000
     1.0000   1.0000   1.0000   1.0000   1.0000   1.0000   1.0000   1.0000
     1.0000   1.0000   1.0000   1.0000   1.0000   1.0000   1.0000   1.0000
     1.0000   1.0000   1.0000   1.0000   1.0000   1.0000   1.0000   1.0000
     1.0000   1.0000   1.0000   1.0000   0.0000   0.0000   0.0000   0.0000
     0.0000   0.0000   0.0000

          k = 0.0625 0.1875 0.0000 (  4842 PWs)   bands (ev):

   -53.7106 -53.7066 -53.7058 -53.7018 -20.2881 -20.2877 -20.2460 -20.2396
   -20.2333 -20.1615 -20.1426 -20.1341 -20.1145 -20.0922 -20.0881 -20.0391
     1.2769   2.1331   2.1949   3.4349   8.0847   9.8077   9.8743  10.7074
    10.8704  10.9363  11.4237  11.7839  11.8789  12.3727  12.3952  12.8188
    13.0473  13.2750  13.6911  14.1304  15.0552  15.3767  15.5879  16.1802
    16.5374  16.7824  17.2221

     occupation numbers 
     1.0000   1.0000   1.0000   1.0000   1.0000   1.0000   1.0000   1.0000
     1.0000   1.0000   1.0000   1.0000   1.0000   1.0000   1.0000   1.0000
     1.0000   1.0000   1.0000   1.0000   1.0000   1.0000   1.0000   1.0000
     1.0000   1.0000   1.0000   1.0000   1.0000   1.0000   1.0000   1.0000
     1.0000   1.0000   1.0000   1.0065   0.0003   0.0000   0.0000   0.0000
     0.0000   0.0000   0.0000

          k = 0.0625 0.1875 0.0986 (  4836 PWs)   bands (ev):

   -53.7100 -53.7084 -53.7040 -53.7024 -20.2875 -20.2871 -20.2404 -20.2391
   -20.2285 -20.1981 -20.1329 -20.1317 -20.0931 -20.0915 -20.0843 -20.0524
     1.3839   1.6922   2.7210   3.2198   8.3811   9.0957  10.2106  10.4709
    11.0559  11.0937  11.6835  11.7845  11.8729  12.2275  12.4201  12.6201
    13.0814  13.1647  13.9056  14.1038  15.0804  15.1993  15.7458  16.2381
    16.3962  16.5297  17.2588

     occupation numbers 
     1.0000   1.0000   1.0000   1.0000   1.0000   1.0000   1.0000   1.0000
     1.0000   1.0000   1.0000   1.0000   1.0000   1.0000   1.0000   1.0000
     1.0000   1.0000   1.0000   1.0000   1.0000   1.0000   1.0000   1.0000
     1.0000   1.0000   1.0000   1.0000   1.0000   1.0000   1.0000   1.0000
     1.0000   1.0000   1.0000   1.0039   0.0002   0.0000   0.0000   0.0000
     0.0000   0.0000   0.0000

          k = 0.0625 0.2500 0.0000 (  4851 PWs)   bands (ev):

   -53.7095 -53.7061 -53.7048 -53.7014 -20.3177 -20.3156 -20.2395 -20.2365
   -20.2288 -20.1770 -20.1591 -20.1434 -20.1161 -20.0892 -20.0855 -20.0424
     1.5968   2.3544   2.4558   3.5135   8.2119   9.1574   9.5850  10.1065
    10.3730  11.0637  11.4851  11.5906  11.7129  12.3431  12.3972  13.0061
    13.0327  13.2442  13.8694  14.2997  15.0057  15.3531  15.5224  15.8774
    16.2908  16.7611  16.8375

     occupation numbers 
     1.0000   1.0000   1.0000   1.0000   1.0000   1.0000   1.0000   1.0000
     1.0000   1.0000   1.0000   1.0000   1.0000   1.0000   1.0000   1.0000
     1.0000   1.0000   1.0000   1.0000   1.0000   1.0000   1.0000   1.0000
     1.0000   1.0000   1.0000   1.0000   1.0000   1.0000   1.0000   1.0000
     1.0000   1.0000   1.0000   1.0609   0.0013   0.0000   0.0000   0.0000
     0.0000   0.0000   0.0000

          k = 0.0625 0.2500 0.0986 (  4838 PWs)   bands (ev):

   -53.7090 -53.7076 -53.7033 -53.7019 -20.3168 -20.3157 -20.2366 -20.2361
   -20.2226 -20.1975 -20.1568 -20.1513 -20.0914 -20.0886 -20.0825 -20.0544
     1.6949   1.9759   2.9027   3.3330   8.4368   8.9275   9.5656   9.8025
    10.7138  11.0098  11.6002  11.6286  11.8940  12.3220  12.3777  12.6892
    13.0361  13.1148  14.1580  14.3506  14.9225  15.0411  15.7455  16.0770
    16.3064  16.3799  16.9142

     occupation numbers 
     1.0000   1.0000   1.0000   1.0000   1.0000   1.0000   1.0000   1.0000
     1.0000   1.0000   1.0000   1.0000   1.0000   1.0000   1.0000   1.0000
     1.0000   1.0000   1.0000   1.0000   1.0000   1.0000   1.0000   1.0000
     1.0000   1.0000   1.0000   1.0000   1.0000   1.0000   1.0000   1.0000
     1.0000   1.0000   1.0106   1.0803   0.0084   0.0005   0.0000   0.0000
     0.0000   0.0000   0.0000

          k = 0.0625 0.3125 0.0000 (  4854 PWs)   bands (ev):

   -53.7084 -53.7057 -53.7037 -53.7010 -20.3464 -20.3441 -20.2342 -20.2335
   -20.2234 -20.1976 -20.1812 -20.1488 -20.1084 -20.0862 -20.0828 -20.0475
     1.9737   2.6095   2.7348   3.5679   8.2393   8.4730   9.2871   9.4356
    10.1772  11.2362  11.4095  11.5319  11.5590  12.2839  12.3643  13.0777
    13.1344  13.1982  13.9490  14.2902  15.0221  15.5546  15.6087  15.7586
    16.2985  16.6763  16.7021

     occupation numbers 
     1.0000   1.0000   1.0000   1.0000   1.0000   1.0000   1.0000   1.0000
     1.0000   1.0000   1.0000   1.0000   1.0000   1.0000   1.0000   1.0000
     1.0000   1.0000   1.0000   1.0000   1.0000   1.0000   1.0000   1.0000
     1.0000   1.0000   1.0000   1.0000   1.0000   1.0000   1.0000   1.0000
     1.0000   1.0000   1.0001   1.0565   0.0008   0.0000   0.0000   0.0000
     0.0000   0.0000   0.0000

          k = 0.0625 0.3125 0.0986 (  4849 PWs)   bands (ev):

   -53.7080 -53.7068 -53.7027 -53.7015 -20.3456 -20.3444 -20.2334 -20.2332
   -20.2192 -20.2058 -20.1762 -20.1628 -20.0894 -20.0859 -20.0803 -20.0578
     2.0593   2.3025   3.0882   3.4297   8.3729   8.5075   9.1247   9.1857
    10.5430  11.0193  11.4202  11.4422  12.0291  12.3190  12.3257  12.7616
    13.0474  13.1092  14.2147  14.3626  14.9698  15.1442  15.7764  16.0214
    16.2992  16.3787  16.8149

     occupation numbers 
     1.0000   1.0000   1.0000   1.0000   1.0000   1.0000   1.0000   1.0000
     1.0000   1.0000   1.0000   1.0000   1.0000   1.0000   1.0000   1.0000
     1.0000   1.0000   1.0000   1.0000   1.0000   1.0000   1.0000   1.0000
     1.0000   1.0000   1.0000   1.0000   1.0000   1.0000   1.0000   1.0000
     1.0000   1.0000   1.0248   1.0825   0.0030   0.0000   0.0000   0.0000
     0.0000   0.0000   0.0000

          k = 0.0625 0.3750 0.0000 (  4857 PWs)   bands (ev):

   -53.7074 -53.7055 -53.7027 -53.7008 -20.3702 -20.3685 -20.2318 -20.2312
   -20.2235 -20.2165 -20.1904 -20.1560 -20.0978 -20.0837 -20.0802 -20.0543
     2.3735   2.8739   2.9763   3.5710   7.9030   8.0509   8.9878   9.0290
    10.1884  11.1003  11.2780  11.4897  11.7808  12.2389  12.2986  12.9823
    13.0762  13.2685  13.9991  14.2558  15.0317  15.3966  15.8113  16.2084
    16.5177  16.5572  16.8769

     occupation numbers 
     1.0000   1.0000   1.0000   1.0000   1.0000   1.0000   1.0000   1.0000
     1.0000   1.0000   1.0000   1.0000   1.0000   1.0000   1.0000   1.0000
     1.0000   1.0000   1.0000   1.0000   1.0000   1.0000   1.0000   1.0000
     1.0000   1.0000   1.0000   1.0000   1.0000   1.0000   1.0000   1.0000
     1.0000   1.0000   1.0004   1.0407   0.0006   0.0000   0.0000   0.0000
     0.0000   0.0000   0.0000

          k = 0.0625 0.3750 0.0986 (  4864 PWs)   bands (ev):

   -53.7070 -53.7061 -53.7020 -53.7012 -20.3696 -20.3686 -20.2319 -20.2314
   -20.2235 -20.2200 -20.1822 -20.1661 -20.0872 -20.0837 -20.0780 -20.0623
     2.4428   2.6371   3.2357   3.4770   7.9998   8.0958   8.8053   8.8692
    10.5368  10.9932  11.2927  11.3507  12.1288  12.2646  12.2750  12.6985
    13.0656  13.1902  14.1537  14.3006  15.0624  15.1903  15.8631  16.1834
    16.4271  16.4998  16.9835

     occupation numbers 
     1.0000   1.0000   1.0000   1.0000   1.0000   1.0000   1.0000   1.0000
     1.0000   1.0000   1.0000   1.0000   1.0000   1.0000   1.0000   1.0000
     1.0000   1.0000   1.0000   1.0000   1.0000   1.0000   1.0000   1.0000
     1.0000   1.0000   1.0000   1.0000   1.0000   1.0000   1.0000   1.0000
     1.0000   1.0000   1.0098   1.0613   0.0003   0.0000   0.0000   0.0000
     0.0000   0.0000   0.0000

          k = 0.0625 0.4375 0.0000 (  4869 PWs)   bands (ev):

   -53.7065 -53.7056 -53.7018 -53.7009 -20.3859 -20.3849 -20.2348 -20.2335
   -20.2264 -20.2262 -20.1847 -20.1648 -20.0878 -20.0822 -20.0776 -20.0626
     2.7420   3.0640   3.1561   3.5026   7.5561   7.7222   8.7926   8.8445
    10.3689  10.8661  11.2249  11.3799  12.1342  12.2101  12.2368  12.7809
    13.0518  13.1716  14.1293  14.2565  15.0359  15.2331  16.0146  16.3344
    16.7646  16.8424  17.2051

     occupation numbers 
     1.0000   1.0000   1.0000   1.0000   1.0000   1.0000   1.0000   1.0000
     1.0000   1.0000   1.0000   1.0000   1.0000   1.0000   1.0000   1.0000
     1.0000   1.0000   1.0000   1.0000   1.0000   1.0000   1.0000   1.0000
     1.0000   1.0000   1.0000   1.0000   1.0000   1.0000   1.0000   1.0000
     1.0000   1.0000   1.0064   1.0409   0.0006   0.0000   0.0000   0.0000
     0.0000   0.0000   0.0000

          k = 0.0625 0.4375 0.0986 (  4872 PWs)   bands (ev):

   -53.7063 -53.7058 -53.7015 -53.7011 -20.3854 -20.3849 -20.2362 -20.2353
   -20.2267 -20.2266 -20.1781 -20.1684 -20.0846 -20.0824 -20.0754 -20.0674
     2.7898   2.9204   3.3049   3.4476   7.6500   7.7468   8.6503   8.7003
    10.6296  10.8739  11.2533  11.3455  12.1913  12.2226  12.2546  12.5476
    13.1026  13.2224  14.1494  14.2583  15.0983  15.1577  15.9433  16.1205
    16.8054  16.8338  17.1915

     occupation numbers 
     1.0000   1.0000   1.0000   1.0000   1.0000   1.0000   1.0000   1.0000
     1.0000   1.0000   1.0000   1.0000   1.0000   1.0000   1.0000   1.0000
     1.0000   1.0000   1.0000   1.0000   1.0000   1.0000   1.0000   1.0000
     1.0000   1.0000   1.0000   1.0000   1.0000   1.0000   1.0000   1.0000
     1.0000   1.0000   1.0091   1.0418   0.0001   0.0000   0.0000   0.0000
     0.0000   0.0000   0.0000

          k = 0.0625-0.5000 0.0000 (  4862 PWs)   bands (ev):

   -53.7059 -53.7059 -53.7012 -53.7012 -20.3910 -20.3910 -20.2375 -20.2375
   -20.2265 -20.2265 -20.1748 -20.1748 -20.0825 -20.0825 -20.0714 -20.0714
     2.9999   2.9999   3.3574   3.3574   7.5048   7.5048   8.7587   8.7587
    10.6181  10.6181  11.2658  11.2658  12.2037  12.2037  12.4934  12.4934
    13.0713  13.0713  14.2366  14.2366  15.0969  15.0969  16.1821  16.1821
    17.0031  17.0031  17.2652

     occupation numbers 
     1.0000   1.0000   1.0000   1.0000   1.0000   1.0000   1.0000   1.0000
     1.0000   1.0000   1.0000   1.0000   1.0000   1.0000   1.0000   1.0000
     1.0000   1.0000   1.0000   1.0000   1.0000   1.0000   1.0000   1.0000
     1.0000   1.0000   1.0000   1.0000   1.0000   1.0000   1.0000   1.0000
     1.0000   1.0000   1.0327   1.0327   0.0001   0.0001   0.0000   0.0000
     0.0000   0.0000   0.0000

          k = 0.0625-0.5000 0.0986 (  4866 PWs)   bands (ev):

   -53.7059 -53.7059 -53.7012 -53.7012 -20.3907 -20.3907 -20.2393 -20.2393
   -20.2266 -20.2266 -20.1725 -20.1725 -20.0827 -20.0827 -20.0719 -20.0719
     3.0020   3.0020   3.3541   3.3541   7.5636   7.5636   8.6224   8.6224
    10.7480  10.7480  11.2968  11.2968  12.1960  12.1960  12.3799  12.3799
    13.1669  13.1669  14.2094  14.2094  15.1217  15.1217  16.0193  16.0193
    17.0241  17.0241  17.1924

     occupation numbers 
     1.0000   1.0000   1.0000   1.0000   1.0000   1.0000   1.0000   1.0000
     1.0000   1.0000   1.0000   1.0000   1.0000   1.0000   1.0000   1.0000
     1.0000   1.0000   1.0000   1.0000   1.0000   1.0000   1.0000   1.0000
     1.0000   1.0000   1.0000   1.0000   1.0000   1.0000   1.0000   1.0000
     1.0000   1.0000   1.0230   1.0230   0.0001   0.0001   0.0000   0.0000
     0.0000   0.0000   0.0000

          k = 0.1250 0.1250 0.0000 (  4834 PWs)   bands (ev):

   -53.7109 -53.7064 -53.7064 -53.7019 -20.2680 -20.2603 -20.2603 -20.2562
   -20.2380 -20.1496 -20.1496 -20.1122 -20.1078 -20.1013 -20.1013 -20.0377
     1.1801   2.0890   2.0891   3.4069   8.0663  10.1249  10.1249  10.8186
    11.0068  11.0068  11.6166  11.6413  11.8110  12.0659  12.0659  12.8056
    13.4696  13.5177  13.5177  13.6307  15.0324  15.4620  16.2255  16.2255
    16.6061  16.6061  17.1094

     occupation numbers 
     1.0000   1.0000   1.0000   1.0000   1.0000   1.0000   1.0000   1.0000
     1.0000   1.0000   1.0000   1.0000   1.0000   1.0000   1.0000   1.0000
     1.0000   1.0000   1.0000   1.0000   1.0000   1.0000   1.0000   1.0000
     1.0000   1.0000   1.0000   1.0000   1.0000   1.0000   1.0000   1.0000
     1.0000   1.0000   1.0000   1.0000   0.0006   0.0000   0.0000   0.0000
     0.0000   0.0000   0.0000

          k = 0.1250 0.1250 0.0986 (  4848 PWs)   bands (ev):

   -53.7103 -53.7086 -53.7042 -53.7025 -20.2637 -20.2607 -20.2592 -20.2572
   -20.2298 -20.1979 -20.1151 -20.1119 -20.1067 -20.1043 -20.0849 -20.0514
     1.2896   1.6058   2.6625   3.1814   8.3869   9.1764  10.7066  10.7833
    11.1851  11.2334  11.5274  11.5700  11.7832  11.8932  12.2681  12.5784
    13.4481  13.4626  13.6608  13.7008  15.2577  15.5020  15.7707  15.8117
    16.8828  17.0525  17.0968

     occupation numbers 
     1.0000   1.0000   1.0000   1.0000   1.0000   1.0000   1.0000   1.0000
     1.0000   1.0000   1.0000   1.0000   1.0000   1.0000   1.0000   1.0000
     1.0000   1.0000   1.0000   1.0000   1.0000   1.0000   1.0000   1.0000
     1.0000   1.0000   1.0000   1.0000   1.0000   1.0000   1.0000   1.0000
     1.0000   1.0000   1.0000   1.0000   0.0000   0.0000   0.0000   0.0000
     0.0000   0.0000   0.0000

          k = 0.1250 0.1875 0.0000 (  4837 PWs)   bands (ev):

   -53.7100 -53.7060 -53.7056 -53.7015 -20.2861 -20.2855 -20.2580 -20.2575
   -20.2332 -20.1573 -20.1446 -20.1325 -20.1131 -20.1070 -20.0989 -20.0393
     1.4131   2.2498   2.2865   3.4756   8.2313   9.8904   9.9777  10.4438
    10.7179  10.9178  10.9909  11.4963  11.8256  11.8474  12.1028  12.9215
    13.2886  13.5708  13.7583  13.8033  14.9669  15.2252  15.9775  16.3175
    16.6286  16.7903  16.8668

     occupation numbers 
     1.0000   1.0000   1.0000   1.0000   1.0000   1.0000   1.0000   1.0000
     1.0000   1.0000   1.0000   1.0000   1.0000   1.0000   1.0000   1.0000
     1.0000   1.0000   1.0000   1.0000   1.0000   1.0000   1.0000   1.0000
     1.0000   1.0000   1.0000   1.0000   1.0000   1.0000   1.0000   1.0000
     1.0000   1.0000   1.0000   1.0000   0.0032   0.0000   0.0000   0.0000
     0.0000   0.0000   0.0000

          k = 0.1250 0.1875 0.0986 (  4847 PWs)   bands (ev):

   -53.7094 -53.7079 -53.7037 -53.7021 -20.2855 -20.2850 -20.2572 -20.2571
   -20.2241 -20.1938 -20.1315 -20.1310 -20.1062 -20.1059 -20.0839 -20.0521
     1.5166   1.8145   2.8009   3.2739   8.5105   9.1943  10.2329  10.3622
    10.9322  10.9747  11.2124  11.4645  11.7368  11.7518  12.2439  12.6219
    13.3566  13.4857  13.8460  13.9213  15.0828  15.4288  15.5035  16.0196
    16.6884  16.8179  17.3675

     occupation numbers 
     1.0000   1.0000   1.0000   1.0000   1.0000   1.0000   1.0000   1.0000
     1.0000   1.0000   1.0000   1.0000   1.0000   1.0000   1.0000   1.0000
     1.0000   1.0000   1.0000   1.0000   1.0000   1.0000   1.0000   1.0000
     1.0000   1.0000   1.0000   1.0000   1.0000   1.0000   1.0000   1.0000
     1.0000   1.0000   1.0000   1.0000   0.0002   0.0000   0.0000   0.0000
     0.0000   0.0000   0.0000

          k = 0.1250 0.2500 0.0000 (  4849 PWs)   bands (ev):

   -53.7090 -53.7056 -53.7045 -53.7011 -20.3154 -20.3134 -20.2543 -20.2542
   -20.2260 -20.1734 -20.1571 -20.1432 -20.1166 -20.1040 -20.0959 -20.0425
     1.7205   2.4584   2.5338   3.5453   8.3833   9.2643   9.7021  10.0582
    10.2473  10.8032  11.0770  11.2934  11.6440  11.9276  12.1144  13.0277
    13.1937  13.5040  13.9451  13.9475  14.9632  15.2523  15.8720  16.1312
    16.5600  16.6348  17.2865

     occupation numbers 
     1.0000   1.0000   1.0000   1.0000   1.0000   1.0000   1.0000   1.0000
     1.0000   1.0000   1.0000   1.0000   1.0000   1.0000   1.0000   1.0000
     1.0000   1.0000   1.0000   1.0000   1.0000   1.0000   1.0000   1.0000
     1.0000   1.0000   1.0000   1.0000   1.0000   1.0000   1.0000   1.0000
     1.0000   1.0000   1.0001   1.0001   0.0035   0.0000   0.0000   0.0000
     0.0000   0.0000   0.0000

          k = 0.1250 0.2500 0.0986 (  4851 PWs)   bands (ev):

   -53.7084 -53.7071 -53.7030 -53.7016 -20.3147 -20.3136 -20.2540 -20.2538
   -20.2177 -20.1931 -20.1550 -20.1500 -20.1040 -20.1034 -20.0827 -20.0541
     1.8149   2.0856   2.9695   3.3764   8.5959   9.0650   9.6110   9.7887
    10.5751  10.8541  11.1668  11.2625  11.6965  11.8717  12.2352  12.6728
    13.2596  13.4092  14.0335  14.0970  14.9987  15.3865  15.5067  16.1084
    16.5497  16.6236  17.3325

     occupation numbers 
     1.0000   1.0000   1.0000   1.0000   1.0000   1.0000   1.0000   1.0000
     1.0000   1.0000   1.0000   1.0000   1.0000   1.0000   1.0000   1.0000
     1.0000   1.0000   1.0000   1.0000   1.0000   1.0000   1.0000   1.0000
     1.0000   1.0000   1.0000   1.0000   1.0000   1.0000   1.0000   1.0000
     1.0000   1.0000   1.0009   1.0034   0.0015   0.0000   0.0000   0.0000
     0.0000   0.0000   0.0000

          k = 0.1250 0.3125 0.0000 (  4863 PWs)   bands (ev):

   -53.7079 -53.7052 -53.7034 -53.7007 -20.3441 -20.3418 -20.2511 -20.2505
   -20.2193 -20.1944 -20.1787 -20.1466 -20.1115 -20.1009 -20.0922 -20.0474
     2.0805   2.6981   2.7960   3.5929   8.3891   8.5928   9.4035   9.5562
     9.9718  10.8485  11.1101  11.2290  11.5642  12.0095  12.1112  13.0400
    13.1655  13.4003  14.0011  14.0141  14.9867  15.5282  15.9258  16.0932
    16.5631  16.5852  17.0711

     occupation numbers 
     1.0000   1.0000   1.0000   1.0000   1.0000   1.0000   1.0000   1.0000
     1.0000   1.0000   1.0000   1.0000   1.0000   1.0000   1.0000   1.0000
     1.0000   1.0000   1.0000   1.0000   1.0000   1.0000   1.0000   1.0000
     1.0000   1.0000   1.0000   1.0000   1.0000   1.0000   1.0000   1.0000
     1.0000   1.0000   1.0004   1.0005   0.0020   0.0000   0.0000   0.0000
     0.0000   0.0000   0.0000

          k = 0.1250 0.3125 0.0986 (  4854 PWs)   bands (ev):

   -53.7074 -53.7062 -53.7024 -53.7012 -20.3432 -20.3421 -20.2508 -20.2505
   -20.2145 -20.2018 -20.1738 -20.1605 -20.1018 -20.1006 -20.0811 -20.0573
     2.1626   2.3959   3.1407   3.4634   8.5209   8.6394   9.2041   9.2449
    10.4127  10.9325  10.9891  11.0790  11.8058  11.9824  12.2180  12.6839
    13.1958  13.3286  14.0792  14.0900  15.1406  15.4905  15.6314  16.0906
    16.5562  16.6164  17.1690

     occupation numbers 
     1.0000   1.0000   1.0000   1.0000   1.0000   1.0000   1.0000   1.0000
     1.0000   1.0000   1.0000   1.0000   1.0000   1.0000   1.0000   1.0000
     1.0000   1.0000   1.0000   1.0000   1.0000   1.0000   1.0000   1.0000
     1.0000   1.0000   1.0000   1.0000   1.0000   1.0000   1.0000   1.0000
     1.0000   1.0000   1.0024   1.0030   0.0000   0.0000   0.0000   0.0000
     0.0000   0.0000   0.0000

          k = 0.1250 0.3750 0.0000 (  4878 PWs)   bands (ev):

   -53.7068 -53.7050 -53.7024 -53.7005 -20.3678 -20.3661 -20.2485 -20.2478
   -20.2209 -20.2136 -20.1866 -20.1529 -20.1042 -20.0984 -20.0872 -20.0540
     2.4595   2.9453   3.0210   3.5937   8.0372   8.1521   9.1429   9.1532
    10.0333  10.7116  10.9988  11.3738  11.6793  12.0509  12.1005  12.8656
    13.1544  13.3720  13.9923  13.9975  15.0691  15.8438  15.8927  16.3315
    16.5667  16.7515  17.1272

     occupation numbers 
     1.0000   1.0000   1.0000   1.0000   1.0000   1.0000   1.0000   1.0000
     1.0000   1.0000   1.0000   1.0000   1.0000   1.0000   1.0000   1.0000
     1.0000   1.0000   1.0000   1.0000   1.0000   1.0000   1.0000   1.0000
     1.0000   1.0000   1.0000   1.0000   1.0000   1.0000   1.0000   1.0000
     1.0000   1.0000   1.0003   1.0004   0.0002   0.0000   0.0000   0.0000
     0.0000   0.0000   0.0000

          k = 0.1250 0.3750 0.0986 (  4864 PWs)   bands (ev):

   -53.7065 -53.7056 -53.7017 -53.7009 -20.3671 -20.3662 -20.2484 -20.2480
   -20.2207 -20.2169 -20.1788 -20.1629 -20.0997 -20.0983 -20.0789 -20.0617
     2.5256   2.7110   3.2761   3.5050   8.1333   8.2114   8.9118   8.9599
    10.4326  10.7701  10.9902  11.1334  11.9061  12.0426  12.1872  12.5865
    13.1692  13.3092  14.0120  14.0336  15.2588  15.6057  15.8732  16.1119
    16.6786  16.7644  17.2179

     occupation numbers 
     1.0000   1.0000   1.0000   1.0000   1.0000   1.0000   1.0000   1.0000
     1.0000   1.0000   1.0000   1.0000   1.0000   1.0000   1.0000   1.0000
     1.0000   1.0000   1.0000   1.0000   1.0000   1.0000   1.0000   1.0000
     1.0000   1.0000   1.0000   1.0000   1.0000   1.0000   1.0000   1.0000
     1.0000   1.0000   1.0005   1.0009   0.0000   0.0000   0.0000   0.0000
     0.0000   0.0000   0.0000

          k = 0.1250 0.4375 0.0000 (  4866 PWs)   bands (ev):

   -53.7059 -53.7050 -53.7015 -53.7006 -20.3833 -20.3823 -20.2471 -20.2465
[...]

     occupation numbers 
     1.0000   1.0000   1.0000   1.0000   1.0000   1.0000   1.0000   1.0000
     1.0000   1.0000   1.0000   1.0000   1.0000   1.0000   1.0000   1.0000
     1.0000   1.0000   1.0000   1.0000   1.0000   1.0000   1.0000   1.0000
     1.0000   1.0000   1.0000   1.0000   1.0000   1.0000   1.0000   1.0000
     1.0000   1.0000   1.0000   1.0000   0.0000   0.0000   0.0000   0.0000
     0.0000   0.0000   0.0000

          k = 0.4375 0.3125-0.0986 (  4877 PWs)   bands (ev):

   -53.7028 -53.7024 -53.7000 -53.6996 -20.3702 -20.3698 -20.3257 -20.3254
   -20.2165 -20.2159 -20.1797 -20.1782 -20.1363 -20.1283 -20.0840 -20.0744
     3.1785   3.2549   3.5093   3.5936   8.5106   8.5402   9.0519   9.0814
     9.9141  10.0458  10.4868  10.4892  11.3170  11.4703  11.7603  11.7746
    13.3552  13.4279  13.6941  13.7765  16.0783  16.2329  16.9532  16.9667
    17.1634  17.3547  17.5454

     occupation numbers 
     1.0000   1.0000   1.0000   1.0000   1.0000   1.0000   1.0000   1.0000
     1.0000   1.0000   1.0000   1.0000   1.0000   1.0000   1.0000   1.0000
     1.0000   1.0000   1.0000   1.0000   1.0000   1.0000   1.0000   1.0000
     1.0000   1.0000   1.0000   1.0000   1.0000   1.0000   1.0000   1.0000
     1.0000   1.0000   1.0000   1.0000   0.0000   0.0000   0.0000   0.0000
     0.0000   0.0000   0.0000

          k =-0.5000 0.3125 0.0000 (  4876 PWs)   bands (ev):

   -53.7024 -53.7024 -53.6997 -53.6997 -20.3755 -20.3755 -20.3247 -20.3247
   -20.2201 -20.2200 -20.1782 -20.1782 -20.1317 -20.1317 -20.0795 -20.0795
     3.2861   3.2861   3.5448   3.5448   8.3734   8.3734   9.3324   9.3324
     9.7087   9.7088  10.4813  10.4813  11.5550  11.5550  11.6984  11.6984
    13.3909  13.3909  13.7467  13.7467  16.2716  16.2716  17.0243  17.0243
    17.2780  17.2780  17.5568

     occupation numbers 
     1.0000   1.0000   1.0000   1.0000   1.0000   1.0000   1.0000   1.0000
     1.0000   1.0000   1.0000   1.0000   1.0000   1.0000   1.0000   1.0000
     1.0000   1.0000   1.0000   1.0000   1.0000   1.0000   1.0000   1.0000
     1.0000   1.0000   1.0000   1.0000   1.0000   1.0000   1.0000   1.0000
     1.0000   1.0000   1.0000   1.0000   0.0000   0.0000   0.0000   0.0000
     0.0000   0.0000   0.0000

          k =-0.5000 0.3125-0.0986 (  4884 PWs)   bands (ev):

   -53.7024 -53.7024 -53.6997 -53.6997 -20.3754 -20.3754 -20.3248 -20.3248
   -20.2206 -20.2206 -20.1780 -20.1780 -20.1311 -20.1310 -20.0799 -20.0799
     3.2861   3.2861   3.5447   3.5447   8.4560   8.4560   9.0412   9.0412
     9.9453   9.9454  10.5215  10.5216  11.5430  11.5430  11.6443  11.6443
    13.3887  13.3887  13.7241  13.7241  16.2070  16.2070  17.1744  17.1744
    17.2957  17.2957  17.6295

     occupation numbers 
     1.0000   1.0000   1.0000   1.0000   1.0000   1.0000   1.0000   1.0000
     1.0000   1.0000   1.0000   1.0000   1.0000   1.0000   1.0000   1.0000
     1.0000   1.0000   1.0000   1.0000   1.0000   1.0000   1.0000   1.0000
     1.0000   1.0000   1.0000   1.0000   1.0000   1.0000   1.0000   1.0000
     1.0000   1.0000   1.0000   1.0000   0.0000   0.0000   0.0000   0.0000
     0.0000   0.0000   0.0000

          k = 0.4375 0.3750 0.0000 (  4879 PWs)   bands (ev):

   -53.7020 -53.7010 -53.7001 -53.6992 -20.3666 -20.3660 -20.3488 -20.3482
   -20.2123 -20.2115 -20.1971 -20.1962 -20.1329 -20.1143 -20.0960 -20.0763
     3.2749   3.4121   3.4813   3.6283   8.6520   8.7776   9.1984   9.2561
     9.6534   9.8133  10.1042  10.3812  11.2100  11.6177  11.6484  11.6638
    13.3712  13.3948  13.6031  13.9012  16.4714  16.7440  17.0554  17.1555
    17.1609  17.2380  17.5008

     occupation numbers 
     1.0000   1.0000   1.0000   1.0000   1.0000   1.0000   1.0000   1.0000
     1.0000   1.0000   1.0000   1.0000   1.0000   1.0000   1.0000   1.0000
     1.0000   1.0000   1.0000   1.0000   1.0000   1.0000   1.0000   1.0000
     1.0000   1.0000   1.0000   1.0000   1.0000   1.0000   1.0000   1.0000
     1.0000   1.0000   1.0000   1.0000   0.0000   0.0000   0.0000   0.0000
     0.0000   0.0000   0.0000

          k = 0.4375 0.3750-0.0986 (  4872 PWs)   bands (ev):

   -53.7018 -53.7014 -53.6998 -53.6994 -20.3664 -20.3661 -20.3486 -20.3483
   -20.2124 -20.2121 -20.1967 -20.1963 -20.1291 -20.1206 -20.0893 -20.0801
     3.2960   3.3540   3.5420   3.6049   8.7172   8.7940   9.1026   9.1075
     9.8019   9.8535  10.1683  10.3201  11.2865  11.4818  11.6645  11.6701
    13.3660  13.3725  13.6915  13.8347  16.4995  16.6199  17.0266  17.0377
    17.2896  17.4621  17.6114

     occupation numbers 
     1.0000   1.0000   1.0000   1.0000   1.0000   1.0000   1.0000   1.0000
     1.0000   1.0000   1.0000   1.0000   1.0000   1.0000   1.0000   1.0000
     1.0000   1.0000   1.0000   1.0000   1.0000   1.0000   1.0000   1.0000
     1.0000   1.0000   1.0000   1.0000   1.0000   1.0000   1.0000   1.0000
     1.0000   1.0000   1.0000   1.0000   0.0000   0.0000   0.0000   0.0000
     0.0000   0.0000   0.0000

          k =-0.5000 0.3750 0.0000 (  4876 PWs)   bands (ev):

   -53.7014 -53.7013 -53.6995 -53.6995 -20.3716 -20.3716 -20.3476 -20.3476
   -20.2163 -20.2163 -20.1958 -20.1958 -20.1233 -20.1233 -20.0858 -20.0858
     3.3758   3.3758   3.5661   3.5662   8.6679   8.6679   9.3654   9.3654
     9.5668   9.5668  10.2309  10.2309  11.4765  11.4765  11.6282  11.6282
    13.3640  13.3641  13.7774  13.7774  16.6573  16.6573  17.1635  17.1635
    17.3700  17.3700  17.7299

     occupation numbers 
     1.0000   1.0000   1.0000   1.0000   1.0000   1.0000   1.0000   1.0000
     1.0000   1.0000   1.0000   1.0000   1.0000   1.0000   1.0000   1.0000
     1.0000   1.0000   1.0000   1.0000   1.0000   1.0000   1.0000   1.0000
     1.0000   1.0000   1.0000   1.0000   1.0000   1.0000   1.0000   1.0000
     1.0000   1.0000   1.0000   1.0000   0.0000   0.0000   0.0000   0.0000
     0.0000   0.0000   0.0000

          k =-0.5000 0.3750-0.0986 (  4858 PWs)   bands (ev):

   -53.7013 -53.7013 -53.6995 -53.6995 -20.3715 -20.3715 -20.3476 -20.3476
   -20.2166 -20.2166 -20.1956 -20.1956 -20.1228 -20.1228 -20.0859 -20.0859
     3.3755   3.3755   3.5666   3.5666   8.7300   8.7300   9.1310   9.1310
     9.7676   9.7676  10.2254  10.2254  11.4931  11.4931  11.5885  11.5885
    13.3702  13.3702  13.7578  13.7579  16.6358  16.6358  17.2583  17.2583
    17.3798  17.3798  17.7281

     occupation numbers 
     1.0000   1.0000   1.0000   1.0000   1.0000   1.0000   1.0000   1.0000
     1.0000   1.0000   1.0000   1.0000   1.0000   1.0000   1.0000   1.0000
     1.0000   1.0000   1.0000   1.0000   1.0000   1.0000   1.0000   1.0000
     1.0000   1.0000   1.0000   1.0000   1.0000   1.0000   1.0000   1.0000
     1.0000   1.0000   1.0000   1.0000   0.0000   0.0000   0.0000   0.0000
     0.0000   0.0000   0.0000

          k =-0.5000 0.4375 0.0000 (  4874 PWs)   bands (ev):

   -53.7005 -53.7005 -53.6996 -53.6995 -20.3691 -20.3691 -20.3628 -20.3628
   -20.2139 -20.2139 -20.2084 -20.2084 -20.1130 -20.1130 -20.0935 -20.0935
     3.4564   3.4564   3.5578   3.5578   8.9504   8.9504   9.3152   9.3152
     9.5355   9.5355   9.9335   9.9335  11.4975  11.4975  11.5937  11.5937
    13.4283  13.4283  13.7054  13.7054  17.0950  17.0950  17.4105  17.4105
    17.4688  17.4688  17.7894

     occupation numbers 
     1.0000   1.0000   1.0000   1.0000   1.0000   1.0000   1.0000   1.0000
     1.0000   1.0000   1.0000   1.0000   1.0000   1.0000   1.0000   1.0000
     1.0000   1.0000   1.0000   1.0000   1.0000   1.0000   1.0000   1.0000
     1.0000   1.0000   1.0000   1.0000   1.0000   1.0000   1.0000   1.0000
     1.0000   1.0000   1.0000   1.0000   0.0000   0.0000   0.0000   0.0000
     0.0000   0.0000   0.0000

          k =-0.5000 0.4375-0.0986 (  4858 PWs)   bands (ev):

   -53.7005 -53.7005 -53.6995 -53.6995 -20.3690 -20.3690 -20.3628 -20.3628
   -20.2140 -20.2140 -20.2083 -20.2083 -20.1127 -20.1127 -20.0936 -20.0936
     3.4561   3.4561   3.5582   3.5582   8.9764   8.9764   9.2093   9.2093
     9.6378   9.6378   9.9215   9.9215  11.5062  11.5062  11.5723  11.5723
    13.4387  13.4387  13.6928  13.6928  17.0994  17.0994  17.4115  17.4115
    17.5164  17.5164  17.7632

     occupation numbers 
     1.0000   1.0000   1.0000   1.0000   1.0000   1.0000   1.0000   1.0000
     1.0000   1.0000   1.0000   1.0000   1.0000   1.0000   1.0000   1.0000
     1.0000   1.0000   1.0000   1.0000   1.0000   1.0000   1.0000   1.0000
     1.0000   1.0000   1.0000   1.0000   1.0000   1.0000   1.0000   1.0000
     1.0000   1.0000   1.0000   1.0000   0.0000   0.0000   0.0000   0.0000
     0.0000   0.0000   0.0000

     the Fermi energy is    14.6572 ev

!    total energy              =    -640.02173699 Ry
     Harris-Foulkes estimate   =    -640.02173699 Ry
     estimated scf accuracy    <          7.3E-12 Ry

     The total energy is the sum of the following terms:

     one-electron contribution =     -97.58362555 Ry
     hartree contribution      =      80.36449761 Ry
     xc contribution           =    -205.10470643 Ry
     ewald contribution        =    -417.69832335 Ry
     smearing contrib. (-TS)   =       0.00042072 Ry

     convergence has been achieved in   9 iterations

     Forces acting on atoms (Ry/au):


     negative rho (up, down):  3.992E-01 0.000E+00
     atom    1 type  2   force =     0.00000000    0.00000000    0.00002143
     atom    2 type  2   force =     0.00000000    0.00000000    0.00001162
     atom    3 type  2   force =     0.00000000    0.00000000    0.00001488
     atom    4 type  2   force =     0.00000000    0.00000000    0.00000960
     atom    5 type  1   force =     0.00000000    0.00000000   -0.00001083
     atom    6 type  1   force =     0.00000000    0.00000000   -0.00001674
     atom    7 type  1   force =     0.00000000    0.00000000   -0.00001067
     atom    8 type  1   force =     0.00000000    0.00000000   -0.00001930
     The non-local contrib.  to forces
     atom    1 type  2   force =     0.00000000    0.00000000    0.01115589
     atom    2 type  2   force =     0.00000000    0.00000000    0.01115126
     atom    3 type  2   force =     0.00000000    0.00000000    0.01115099
     atom    4 type  2   force =     0.00000000    0.00000000    0.01114748
     atom    5 type  1   force =     0.00000000    0.00000000   -0.01011215
     atom    6 type  1   force =     0.00000000    0.00000000   -0.01011459
     atom    7 type  1   force =     0.00000000    0.00000000   -0.01011180
     atom    8 type  1   force =     0.00000000    0.00000000   -0.01011638
     The ionic contribution  to forces
     atom    1 type  2   force =    -0.00000000    0.00000000   -0.14068513
     atom    2 type  2   force =     0.00000000    0.00000000   -0.14129498
     atom    3 type  2   force =    -0.00000000    0.00000000   -0.14115999
     atom    4 type  2   force =    -0.00000000   -0.00000000   -0.14153505
     atom    5 type  1   force =     0.00000000   -0.00000000    0.14133521
     atom    6 type  1   force =    -0.00000000   -0.00000000    0.14110972
     atom    7 type  1   force =     0.00000000   -0.00000000    0.14117877
     atom    8 type  1   force =     0.00000000    0.00000000    0.14105144
     The local contribution  to forces
     atom    1 type  2   force =     0.00000000    0.00000000    0.12884008
     atom    2 type  2   force =     0.00000000    0.00000000    0.12944565
     atom    3 type  2   force =     0.00000000    0.00000000    0.12930709
     atom    4 type  2   force =     0.00000000    0.00000000    0.12968444
     atom    5 type  1   force =    -0.00000000   -0.00000000   -0.13093377
     atom    6 type  1   force =    -0.00000000    0.00000000   -0.13071108
     atom    7 type  1   force =    -0.00000000    0.00000000   -0.13078005
     atom    8 type  1   force =     0.00000000   -0.00000000   -0.13065450
     The core correction contribution to forces
     atom    1 type  2   force =     0.00000000    0.00000000    0.00071325
     atom    2 type  2   force =    -0.00000000   -0.00000000    0.00071312
     atom    3 type  2   force =     0.00000000    0.00000000    0.00071332
     atom    4 type  2   force =     0.00000000    0.00000000    0.00071285
     atom    5 type  1   force =     0.00000000    0.00000000   -0.00030015
     atom    6 type  1   force =     0.00000000    0.00000000   -0.00029916
     atom    7 type  1   force =    -0.00000000    0.00000000   -0.00030024
     atom    8 type  1   force =     0.00000000    0.00000000   -0.00029827
     The Hubbard contrib.    to forces
     atom    1 type  2   force =     0.00000000    0.00000000    0.00000000
     atom    2 type  2   force =     0.00000000    0.00000000    0.00000000
     atom    3 type  2   force =     0.00000000    0.00000000    0.00000000
     atom    4 type  2   force =     0.00000000    0.00000000    0.00000000
     atom    5 type  1   force =     0.00000000    0.00000000    0.00000000
     atom    6 type  1   force =     0.00000000    0.00000000    0.00000000
     atom    7 type  1   force =     0.00000000    0.00000000    0.00000000
     atom    8 type  1   force =     0.00000000    0.00000000    0.00000000
     The SCF correction term to forces
     atom    1 type  2   force =    -0.00000000    0.00000000   -0.00000250
     atom    2 type  2   force =    -0.00000000    0.00000000   -0.00000328
     atom    3 type  2   force =     0.00000000    0.00000000    0.00000362
     atom    4 type  2   force =     0.00000000    0.00000000    0.00000004
     atom    5 type  1   force =    -0.00000000   -0.00000000    0.00000017
     atom    6 type  1   force =    -0.00000000    0.00000000   -0.00000148
     atom    7 type  1   force =    -0.00000000   -0.00000000    0.00000280
     atom    8 type  1   force =     0.00000000    0.00000000   -0.00000144

     Total force =     0.000042     Total SCF correction =     0.000006
     SCF correction compared to forces is large: reduce conv_thr to get better values


     entering subroutine stress ...


     negative rho (up, down):  3.992E-01 0.000E+00
          total   stress  (Ry/bohr**3)                   (kbar)     P=  -64.91
  -0.00045523   0.00000000   0.00000000        -66.97      0.00      0.00
   0.00000000  -0.00045526   0.00000000          0.00    -66.97      0.00
   0.00000000   0.00000000  -0.00041318          0.00      0.00    -60.78

     kinetic stress (kbar)  18610.84      0.00      0.00
                                0.00  18610.84      0.00
                                0.00      0.00  18828.61

     local   stress (kbar)  14753.42     -0.00      0.00
                               -0.00  14753.43     -0.00
                                0.00     -0.00  15123.88

     nonloc. stress (kbar) -10566.03      0.00      0.00
                                0.00 -10566.02      0.00
                                0.00      0.00 -10594.71

     hartree stress (kbar)   4073.99     -0.00     -0.00
                               -0.00   4074.00      0.00
                               -0.00      0.00   4252.93

     exc-cor stress (kbar)  15817.99      0.00      0.00
                                0.00  15817.99     -0.00
                                0.00     -0.00  15817.65

     corecor stress (kbar) -21518.39     -0.00     -0.00
                               -0.00 -21518.39     -0.00
                               -0.00     -0.00 -21512.36

     ewald   stress (kbar) -21238.78      0.00      0.00
                                0.00 -21238.81      0.00
                                0.00      0.00 -21976.78

     hubbard stress (kbar)      0.00      0.00      0.00
                                0.00      0.00      0.00
                                0.00      0.00      0.00

     london  stress (kbar)      0.00      0.00      0.00
                                0.00      0.00      0.00
                                0.00      0.00      0.00

     XDM     stress (kbar)      0.00      0.00      0.00
                                0.00      0.00      0.00
                                0.00      0.00      0.00

     dft-nl  stress (kbar)      0.00      0.00      0.00
                                0.00      0.00      0.00
                                0.00      0.00      0.00



     bfgs converged in   3 scf cycles and   2 bfgs steps
     (criteria: energy <  8.0E-05, force <  1.0E-04)

     End of BFGS Geometry Optimization

     Final energy   =    -640.0217369885 Ry
Begin final coordinates

ATOMIC_POSITIONS (crystal)
Ta       0.500000000   0.000000000   0.249963993
Ta       0.500000000   0.500000000   0.999965211
Ta       0.000000000   0.500000000   0.749965001
Ta       0.000000000   0.000000000   0.499965719
As       0.000000000   0.500000000   0.167734308
As       0.000000000   0.000000000   0.917735402
As       0.500000000   0.000000000   0.667734784
As       0.500000000   0.500000000   0.417735583
End final coordinates



     init_run     :     80.33s CPU    107.25s WALL (       1 calls)
     electrons    :   3508.89s CPU   5704.09s WALL (       3 calls)
     update_pot   :      4.45s CPU      6.23s WALL (       2 calls)
     forces       :     43.92s CPU     44.08s WALL (       3 calls)
     stress       :     65.05s CPU    975.79s WALL (       3 calls)

     Called by init_run:
     wfcinit      :     74.98s CPU     97.45s WALL (       1 calls)
     potinit      :      1.06s CPU      1.40s WALL (       1 calls)

     Called by electrons:
     c_bands      :   2876.94s CPU   4902.60s WALL (      29 calls)
     sum_band     :    602.08s CPU    752.19s WALL (      29 calls)
     v_of_rho     :      7.69s CPU     11.15s WALL (      29 calls)
     v_h          :      0.33s CPU      0.64s WALL (      29 calls)
     v_xc         :      8.95s CPU     12.46s WALL (      35 calls)
     newd         :     25.92s CPU     45.12s WALL (      29 calls)
     mix_rho      :      0.58s CPU      1.23s WALL (      29 calls)

     Called by c_bands:
     init_us_2    :     88.47s CPU     98.17s WALL (   10530 calls)
     cegterg      :   2637.30s CPU   4602.43s WALL (    4698 calls)

     Called by sum_band:
     sum_band:bec :      0.20s CPU      0.64s WALL (    4698 calls)
     addusdens    :     79.69s CPU     55.77s WALL (      29 calls)

     Called by *egterg:
     h_psi        :   2194.14s CPU   2942.32s WALL (   18611 calls)
     s_psi        :    161.86s CPU    153.94s WALL (   18611 calls)
     g_psi        :      4.94s CPU     11.83s WALL (   13751 calls)
     cdiaghg      :     25.59s CPU   1064.19s WALL (   17639 calls)
     cegterg:over :    133.95s CPU    148.31s WALL (   13751 calls)
     cegterg:upda :     62.33s CPU    134.63s WALL (   13751 calls)
     cegterg:last :     38.50s CPU     40.40s WALL (    4698 calls)

     Called by h_psi:
     h_psi:vloc   :   1836.16s CPU   2626.26s WALL (   18611 calls)
     h_psi:vnl    :    349.11s CPU    300.39s WALL (   18611 calls)
     add_vuspsi   :    165.67s CPU    153.24s WALL (   18611 calls)

     General routines
     calbec       :    280.66s CPU    207.50s WALL (   25739 calls)
     fft          :      5.30s CPU      7.45s WALL (     541 calls)
     ffts         :      0.11s CPU      0.21s WALL (      58 calls)
     fftw         :   1822.17s CPU   2670.23s WALL ( 1212284 calls)
     interpolate  :      0.91s CPU      1.32s WALL (      58 calls)

     Parallel routines
     fft_scatter  :    145.69s CPU    237.81s WALL ( 1212883 calls)

     PWSCF        :     1h 1m CPU        1h54m WALL


   This run was terminated on:  21:18: 5  21Oct2024            

=------------------------------------------------------------------------------=
   JOB DONE.
=------------------------------------------------------------------------------=
